       N       E                     dE             d eps       ncg     rms          rms(c)

 E_p =  0.00000E+00  lambda =  0.100E+02
<lVp>=  0.00000E+00
 DBL =  0.00000E+00
 ion        MW_int                 M_int
  1  0.000  0.000  0.956    0.000  0.000  1.656
  2  0.000  0.000  0.956    0.000  0.000  1.656
  3  0.000  0.000  0.956    0.000  0.000  1.656
  4  0.000  0.000  0.956    0.000  0.000  1.656
  5  0.000  0.000  0.956    0.000  0.000  1.656
  6  0.000  0.000  0.956    0.000  0.000  1.656
  7  0.000  0.000  0.956    0.000  0.000  1.656
  8  0.000  0.000  0.956    0.000  0.000  1.656
  9  0.000  0.000  0.956    0.000  0.000  1.656
 10  0.000  0.000  0.956    0.000  0.000  1.656
 11  0.000  0.000  0.956    0.000  0.000  1.656
 12  0.000  0.000  0.956    0.000  0.000  1.656
 13  0.000  0.000  0.956    0.000  0.000  1.656
 14  0.000  0.000  0.956    0.000  0.000  1.656
 15  0.000  0.000  0.956    0.000  0.000  1.656
 16  0.000  0.000  0.956    0.000  0.000  1.656
 17  0.000  0.000  0.956    0.000  0.000  1.656
 18  0.000  0.000  0.956    0.000  0.000  1.656
 19  0.000  0.000  0.956    0.000  0.000  1.656
 20  0.000  0.000  0.956    0.000  0.000  1.656
 21  0.000  0.000  0.956    0.000  0.000  1.656
 22  0.000  0.000  0.956    0.000  0.000  1.656
 23  0.000  0.000  0.956    0.000  0.000  1.656
 24  0.000  0.000  0.956    0.000  0.000  1.656
 25  0.000  0.000  0.956    0.000  0.000  1.656
 26  0.000  0.000  0.956    0.000  0.000  1.656
 27  0.000  0.000  0.956    0.000  0.000  1.656
 28  0.000  0.000  0.956    0.000  0.000  1.656
 29  0.000  0.000  0.956    0.000  0.000  1.656
 30  0.000  0.000  0.956    0.000  0.000  1.656
 31  0.000  0.000  0.956    0.000  0.000  1.656
 32  0.000  0.000  0.956    0.000  0.000  1.656
 33  0.000  0.000  0.956    0.000  0.000  1.656
 34  0.000  0.000  0.956    0.000  0.000  1.656
 35  0.000  0.000  0.956    0.000  0.000  1.656
 36  0.000  0.000  0.956    0.000  0.000  1.656
 37  0.000  0.000  0.956    0.000  0.000  1.656
 38  0.000  0.000  0.956    0.000  0.000  1.656
 39  0.000  0.000  0.956    0.000  0.000  1.656
 40  0.000  0.000  0.956    0.000  0.000  1.656
 41  0.000  0.000  0.956    0.000  0.000  1.656
 42  0.000  0.000  0.956    0.000  0.000  1.656
 43  0.000  0.000  0.956    0.000  0.000  1.656
 44  0.000  0.000  0.956    0.000  0.000  1.656
 45  0.000  0.000  0.956    0.000  0.000  1.656
 46  0.000  0.000  0.956    0.000  0.000  1.656
 47  0.000  0.000  0.956    0.000  0.000  1.656
 48  0.000  0.000  0.956    0.000  0.000  1.656
 49  0.000  0.000  0.956    0.000  0.000  1.656
 50  0.000  0.000  0.956    0.000  0.000  1.656
 51  0.000  0.000  0.956    0.000  0.000  1.656
 52  0.000  0.000  0.956    0.000  0.000  1.656
 53  0.000  0.000  0.956    0.000  0.000  1.656
 54  0.000  0.000  0.956    0.000  0.000  1.656
DAV:   1     0.331079587358E+04    0.33108E+04   -0.13574E+05 27216   0.164E+03

 E_p =  0.00000E+00  lambda =  0.100E+02
<lVp>=  0.00000E+00
 DBL =  0.00000E+00
 ion        MW_int                 M_int
  1  0.000  0.000  0.956    0.000  0.000  1.656
  2  0.000  0.000  0.956    0.000  0.000  1.656
  3  0.000  0.000  0.956    0.000  0.000  1.656
  4  0.000  0.000  0.956    0.000  0.000  1.656
  5  0.000  0.000  0.956    0.000  0.000  1.656
  6  0.000  0.000  0.956    0.000  0.000  1.656
  7  0.000  0.000  0.956    0.000  0.000  1.656
  8  0.000  0.000  0.956    0.000  0.000  1.656
  9  0.000  0.000  0.956    0.000  0.000  1.656
 10  0.000  0.000  0.956    0.000  0.000  1.656
 11  0.000  0.000  0.956    0.000  0.000  1.656
 12  0.000  0.000  0.956    0.000  0.000  1.656
 13  0.000  0.000  0.956    0.000  0.000  1.656
 14  0.000  0.000  0.956    0.000  0.000  1.656
 15  0.000  0.000  0.956    0.000  0.000  1.656
 16  0.000  0.000  0.956    0.000  0.000  1.656
 17  0.000  0.000  0.956    0.000  0.000  1.656
 18  0.000  0.000  0.956    0.000  0.000  1.656
 19  0.000  0.000  0.956    0.000  0.000  1.656
 20  0.000  0.000  0.956    0.000  0.000  1.656
 21  0.000  0.000  0.956    0.000  0.000  1.656
 22  0.000  0.000  0.956    0.000  0.000  1.656
 23  0.000  0.000  0.956    0.000  0.000  1.656
 24  0.000  0.000  0.956    0.000  0.000  1.656
 25  0.000  0.000  0.956    0.000  0.000  1.656
 26  0.000  0.000  0.956    0.000  0.000  1.656
 27  0.000  0.000  0.956    0.000  0.000  1.656
 28  0.000  0.000  0.956    0.000  0.000  1.656
 29  0.000  0.000  0.956    0.000  0.000  1.656
 30  0.000  0.000  0.956    0.000  0.000  1.656
 31  0.000  0.000  0.956    0.000  0.000  1.656
 32  0.000  0.000  0.956    0.000  0.000  1.656
 33  0.000  0.000  0.956    0.000  0.000  1.656
 34  0.000  0.000  0.956    0.000  0.000  1.656
 35  0.000  0.000  0.956    0.000  0.000  1.656
 36  0.000  0.000  0.956    0.000  0.000  1.656
 37  0.000  0.000  0.956    0.000  0.000  1.656
 38  0.000  0.000  0.956    0.000  0.000  1.656
 39  0.000  0.000  0.956    0.000  0.000  1.656
 40  0.000  0.000  0.956    0.000  0.000  1.656
 41  0.000  0.000  0.956    0.000  0.000  1.656
 42  0.000  0.000  0.956    0.000  0.000  1.656
 43  0.000  0.000  0.956    0.000  0.000  1.656
 44  0.000  0.000  0.956    0.000  0.000  1.656
 45  0.000  0.000  0.956    0.000  0.000  1.656
 46  0.000  0.000  0.956    0.000  0.000  1.656
 47  0.000  0.000  0.956    0.000  0.000  1.656
 48  0.000  0.000  0.956    0.000  0.000  1.656
 49  0.000  0.000  0.956    0.000  0.000  1.656
 50  0.000  0.000  0.956    0.000  0.000  1.656
 51  0.000  0.000  0.956    0.000  0.000  1.656
 52  0.000  0.000  0.956    0.000  0.000  1.656
 53  0.000  0.000  0.956    0.000  0.000  1.656
 54  0.000  0.000  0.956    0.000  0.000  1.656
DAV:   2    -0.748687622646E+02   -0.33857E+04   -0.33189E+04 27216   0.436E+02

 E_p =  0.00000E+00  lambda =  0.100E+02
<lVp>=  0.00000E+00
 DBL =  0.00000E+00
 ion        MW_int                 M_int
  1  0.000  0.000  0.956    0.000  0.000  1.656
  2  0.000  0.000  0.956    0.000  0.000  1.656
  3  0.000  0.000  0.956    0.000  0.000  1.656
  4  0.000  0.000  0.956    0.000  0.000  1.656
  5  0.000  0.000  0.956    0.000  0.000  1.656
  6  0.000  0.000  0.956    0.000  0.000  1.656
  7  0.000  0.000  0.956    0.000  0.000  1.656
  8  0.000  0.000  0.956    0.000  0.000  1.656
  9  0.000  0.000  0.956    0.000  0.000  1.656
 10  0.000  0.000  0.956    0.000  0.000  1.656
 11  0.000  0.000  0.956    0.000  0.000  1.656
 12  0.000  0.000  0.956    0.000  0.000  1.656
 13  0.000  0.000  0.956    0.000  0.000  1.656
 14  0.000  0.000  0.956    0.000  0.000  1.656
 15  0.000  0.000  0.956    0.000  0.000  1.656
 16  0.000  0.000  0.956    0.000  0.000  1.656
 17  0.000  0.000  0.956    0.000  0.000  1.656
 18  0.000  0.000  0.956    0.000  0.000  1.656
 19  0.000  0.000  0.956    0.000  0.000  1.656
 20  0.000  0.000  0.956    0.000  0.000  1.656
 21  0.000  0.000  0.956    0.000  0.000  1.656
 22  0.000  0.000  0.956    0.000  0.000  1.656
 23  0.000  0.000  0.956    0.000  0.000  1.656
 24  0.000  0.000  0.956    0.000  0.000  1.656
 25  0.000  0.000  0.956    0.000  0.000  1.656
 26  0.000  0.000  0.956    0.000  0.000  1.656
 27  0.000  0.000  0.956    0.000  0.000  1.656
 28  0.000  0.000  0.956    0.000  0.000  1.656
 29  0.000  0.000  0.956    0.000  0.000  1.656
 30  0.000  0.000  0.956    0.000  0.000  1.656
 31  0.000  0.000  0.956    0.000  0.000  1.656
 32  0.000  0.000  0.956    0.000  0.000  1.656
 33  0.000  0.000  0.956    0.000  0.000  1.656
 34  0.000  0.000  0.956    0.000  0.000  1.656
 35  0.000  0.000  0.956    0.000  0.000  1.656
 36  0.000  0.000  0.956    0.000  0.000  1.656
 37  0.000  0.000  0.956    0.000  0.000  1.656
 38  0.000  0.000  0.956    0.000  0.000  1.656
 39  0.000  0.000  0.956    0.000  0.000  1.656
 40  0.000  0.000  0.956    0.000  0.000  1.656
 41  0.000  0.000  0.956    0.000  0.000  1.656
 42  0.000  0.000  0.956    0.000  0.000  1.656
 43  0.000  0.000  0.956    0.000  0.000  1.656
 44  0.000  0.000  0.956    0.000  0.000  1.656
 45  0.000  0.000  0.956    0.000  0.000  1.656
 46  0.000  0.000  0.956    0.000  0.000  1.656
 47  0.000  0.000  0.956    0.000  0.000  1.656
 48  0.000  0.000  0.956    0.000  0.000  1.656
 49  0.000  0.000  0.956    0.000  0.000  1.656
 50  0.000  0.000  0.956    0.000  0.000  1.656
 51  0.000  0.000  0.956    0.000  0.000  1.656
 52  0.000  0.000  0.956    0.000  0.000  1.656
 53  0.000  0.000  0.956    0.000  0.000  1.656
 54  0.000  0.000  0.956    0.000  0.000  1.656
DAV:   3    -0.428478243295E+03   -0.35361E+03   -0.31927E+03 35056   0.169E+02

 E_p =  0.00000E+00  lambda =  0.100E+02
<lVp>=  0.00000E+00
 DBL =  0.00000E+00
 ion        MW_int                 M_int
  1  0.000  0.000  0.956    0.000  0.000  1.656
  2  0.000  0.000  0.956    0.000  0.000  1.656
  3  0.000  0.000  0.956    0.000  0.000  1.656
  4  0.000  0.000  0.956    0.000  0.000  1.656
  5  0.000  0.000  0.956    0.000  0.000  1.656
  6  0.000  0.000  0.956    0.000  0.000  1.656
  7  0.000  0.000  0.956    0.000  0.000  1.656
  8  0.000  0.000  0.956    0.000  0.000  1.656
  9  0.000  0.000  0.956    0.000  0.000  1.656
 10  0.000  0.000  0.956    0.000  0.000  1.656
 11  0.000  0.000  0.956    0.000  0.000  1.656
 12  0.000  0.000  0.956    0.000  0.000  1.656
 13  0.000  0.000  0.956    0.000  0.000  1.656
 14  0.000  0.000  0.956    0.000  0.000  1.656
 15  0.000  0.000  0.956    0.000  0.000  1.656
 16  0.000  0.000  0.956    0.000  0.000  1.656
 17  0.000  0.000  0.956    0.000  0.000  1.656
 18  0.000  0.000  0.956    0.000  0.000  1.656
 19  0.000  0.000  0.956    0.000  0.000  1.656
 20  0.000  0.000  0.956    0.000  0.000  1.656
 21  0.000  0.000  0.956    0.000  0.000  1.656
 22  0.000  0.000  0.956    0.000  0.000  1.656
 23  0.000  0.000  0.956    0.000  0.000  1.656
 24  0.000  0.000  0.956    0.000  0.000  1.656
 25  0.000  0.000  0.956    0.000  0.000  1.656
 26  0.000  0.000  0.956    0.000  0.000  1.656
 27  0.000  0.000  0.956    0.000  0.000  1.656
 28  0.000  0.000  0.956    0.000  0.000  1.656
 29  0.000  0.000  0.956    0.000  0.000  1.656
 30  0.000  0.000  0.956    0.000  0.000  1.656
 31  0.000  0.000  0.956    0.000  0.000  1.656
 32  0.000  0.000  0.956    0.000  0.000  1.656
 33  0.000  0.000  0.956    0.000  0.000  1.656
 34  0.000  0.000  0.956    0.000  0.000  1.656
 35  0.000  0.000  0.956    0.000  0.000  1.656
 36  0.000  0.000  0.956    0.000  0.000  1.656
 37  0.000  0.000  0.956    0.000  0.000  1.656
 38  0.000  0.000  0.956    0.000  0.000  1.656
 39  0.000  0.000  0.956    0.000  0.000  1.656
 40  0.000  0.000  0.956    0.000  0.000  1.656
 41  0.000  0.000  0.956    0.000  0.000  1.656
 42  0.000  0.000  0.956    0.000  0.000  1.656
 43  0.000  0.000  0.956    0.000  0.000  1.656
 44  0.000  0.000  0.956    0.000  0.000  1.656
 45  0.000  0.000  0.956    0.000  0.000  1.656
 46  0.000  0.000  0.956    0.000  0.000  1.656
 47  0.000  0.000  0.956    0.000  0.000  1.656
 48  0.000  0.000  0.956    0.000  0.000  1.656
 49  0.000  0.000  0.956    0.000  0.000  1.656
 50  0.000  0.000  0.956    0.000  0.000  1.656
 51  0.000  0.000  0.956    0.000  0.000  1.656
 52  0.000  0.000  0.956    0.000  0.000  1.656
 53  0.000  0.000  0.956    0.000  0.000  1.656
 54  0.000  0.000  0.956    0.000  0.000  1.656
DAV:   4    -0.494123197076E+03   -0.65645E+02   -0.60377E+02 47264   0.570E+01

 E_p =  0.00000E+00  lambda =  0.100E+02
<lVp>=  0.00000E+00
 DBL =  0.00000E+00
 ion        MW_int                 M_int
  1  0.000  0.000  0.956    0.000  0.000  1.656
  2  0.000  0.000  0.956    0.000  0.000  1.656
  3  0.000  0.000  0.956    0.000  0.000  1.656
  4  0.000  0.000  0.956    0.000  0.000  1.656
  5  0.000  0.000  0.956    0.000  0.000  1.656
  6  0.000  0.000  0.956    0.000  0.000  1.656
  7  0.000  0.000  0.956    0.000  0.000  1.656
  8  0.000  0.000  0.956    0.000  0.000  1.656
  9  0.000  0.000  0.956    0.000  0.000  1.656
 10  0.000  0.000  0.956    0.000  0.000  1.656
 11  0.000  0.000  0.956    0.000  0.000  1.656
 12  0.000  0.000  0.956    0.000  0.000  1.656
 13  0.000  0.000  0.956    0.000  0.000  1.656
 14  0.000  0.000  0.956    0.000  0.000  1.656
 15  0.000  0.000  0.956    0.000  0.000  1.656
 16  0.000  0.000  0.956    0.000  0.000  1.656
 17  0.000  0.000  0.956    0.000  0.000  1.656
 18  0.000  0.000  0.956    0.000  0.000  1.656
 19  0.000  0.000  0.956    0.000  0.000  1.656
 20  0.000  0.000  0.956    0.000  0.000  1.656
 21  0.000  0.000  0.956    0.000  0.000  1.656
 22  0.000  0.000  0.956    0.000  0.000  1.656
 23  0.000  0.000  0.956    0.000  0.000  1.656
 24  0.000  0.000  0.956    0.000  0.000  1.656
 25  0.000  0.000  0.956    0.000  0.000  1.656
 26  0.000  0.000  0.956    0.000  0.000  1.656
 27  0.000  0.000  0.956    0.000  0.000  1.656
 28  0.000  0.000  0.956    0.000  0.000  1.656
 29  0.000  0.000  0.956    0.000  0.000  1.656
 30  0.000  0.000  0.956    0.000  0.000  1.656
 31  0.000  0.000  0.956    0.000  0.000  1.656
 32  0.000  0.000  0.956    0.000  0.000  1.656
 33  0.000  0.000  0.956    0.000  0.000  1.656
 34  0.000  0.000  0.956    0.000  0.000  1.656
 35  0.000  0.000  0.956    0.000  0.000  1.656
 36  0.000  0.000  0.956    0.000  0.000  1.656
 37  0.000  0.000  0.956    0.000  0.000  1.656
 38  0.000  0.000  0.956    0.000  0.000  1.656
 39  0.000  0.000  0.956    0.000  0.000  1.656
 40  0.000  0.000  0.956    0.000  0.000  1.656
 41  0.000  0.000  0.956    0.000  0.000  1.656
 42  0.000  0.000  0.956    0.000  0.000  1.656
 43  0.000  0.000  0.956    0.000  0.000  1.656
 44  0.000  0.000  0.956    0.000  0.000  1.656
 45  0.000  0.000  0.956    0.000  0.000  1.656
 46  0.000  0.000  0.956    0.000  0.000  1.656
 47  0.000  0.000  0.956    0.000  0.000  1.656
 48  0.000  0.000  0.956    0.000  0.000  1.656
 49  0.000  0.000  0.956    0.000  0.000  1.656
 50  0.000  0.000  0.956    0.000  0.000  1.656
 51  0.000  0.000  0.956    0.000  0.000  1.656
 52  0.000  0.000  0.956    0.000  0.000  1.656
 53  0.000  0.000  0.956    0.000  0.000  1.656
 54  0.000  0.000  0.956    0.000  0.000  1.656
DAV:   5    -0.501020808966E+03   -0.68976E+01   -0.64658E+01 42224   0.187E+01    0.813E+01

 E_p =  0.32252E-03  lambda =  0.100E+02
<lVp>=  0.64505E-03
 DBL = -0.32252E-03
 ion        MW_int                 M_int
  1 -0.000  0.000  1.067   -0.000  0.000  1.740
  2  0.001  0.001  1.068    0.001  0.001  1.740
  3  0.000  0.000  1.067    0.000  0.000  1.740
  4 -0.001 -0.000  1.067   -0.001 -0.000  1.740
  5 -0.000 -0.000  1.067   -0.000 -0.000  1.740
  6 -0.001 -0.000  1.068   -0.001 -0.000  1.742
  7 -0.000 -0.001  1.067   -0.000 -0.002  1.740
  8  0.000  0.000  1.067    0.000  0.000  1.740
  9 -0.001  0.000  1.067   -0.002  0.000  1.740
 10 -0.000 -0.000  1.067   -0.000 -0.001  1.740
 11 -0.001 -0.000  1.068   -0.001 -0.001  1.742
 12 -0.000 -0.001  1.068   -0.000 -0.002  1.741
 13  0.000 -0.002  1.067    0.000 -0.003  1.740
 14 -0.000  0.001  1.067   -0.001  0.001  1.740
 15  0.001 -0.000  1.067    0.001 -0.000  1.740
 16 -0.000 -0.001  1.067   -0.000 -0.001  1.740
 17 -0.000  0.001  1.068   -0.000  0.001  1.741
 18  0.000  0.000  1.068    0.000  0.000  1.741
 19 -0.002 -0.000  1.067   -0.003 -0.000  1.739
 20 -0.001  0.001  1.067   -0.002  0.001  1.740
 21 -0.001  0.000  1.067   -0.002  0.000  1.740
 22  0.000 -0.000  1.068    0.000 -0.000  1.741
 23 -0.001  0.000  1.068   -0.001  0.001  1.741
 24 -0.000  0.000  1.067   -0.000  0.000  1.740
 25  0.001  0.000  1.068    0.001  0.001  1.741
 26 -0.000 -0.001  1.067   -0.000 -0.002  1.740
 27  0.000  0.000  1.067    0.000  0.000  1.740
 28 -0.001  0.000  1.068   -0.001  0.001  1.740
 29  0.000  0.000  1.067    0.000  0.000  1.740
 30  0.001 -0.000  1.067    0.001 -0.000  1.740
 31 -0.001 -0.000  1.068   -0.001 -0.001  1.741
 32 -0.000 -0.000  1.068   -0.000 -0.000  1.741
 33 -0.000 -0.000  1.068   -0.000 -0.000  1.741
 34 -0.000 -0.000  1.067   -0.000 -0.000  1.740
 35 -0.000 -0.000  1.068   -0.000 -0.000  1.741
 36 -0.000  0.001  1.067   -0.001  0.002  1.740
 37 -0.001 -0.000  1.067   -0.001 -0.000  1.740
 38 -0.000 -0.001  1.068   -0.000 -0.001  1.741
 39 -0.000 -0.001  1.067   -0.000 -0.002  1.740
 40  0.001  0.000  1.068    0.001  0.001  1.741
 41 -0.000  0.000  1.068   -0.000  0.001  1.741
 42 -0.000  0.000  1.068   -0.000  0.000  1.741
 43  0.001 -0.000  1.068    0.001 -0.000  1.741
 44  0.001 -0.001  1.067    0.001 -0.001  1.740
 45  0.000  0.000  1.067    0.000  0.001  1.740
 46 -0.000  0.001  1.068   -0.000  0.002  1.741
 47 -0.000  0.000  1.067   -0.001  0.000  1.740
 48  0.000 -0.001  1.068    0.000 -0.001  1.741
 49  0.001  0.001  1.067    0.001  0.001  1.740
 50 -0.000  0.000  1.067   -0.000  0.001  1.740
 51  0.000 -0.000  1.067    0.001  0.000  1.740
 52  0.000 -0.000  1.068    0.000 -0.001  1.741
 53  0.000  0.000  1.067    0.000  0.000  1.740
 54 -0.000 -0.001  1.068   -0.000 -0.002  1.741
DAV:   6    -0.447921660149E+03    0.53099E+02   -0.22907E+02 39256   0.604E+01    0.403E+01

 E_p =  0.67075E-01  lambda =  0.100E+02
<lVp>=  0.13415E+00
 DBL = -0.67075E-01
 ion        MW_int                 M_int
  1  0.002 -0.002  1.292    0.003 -0.003  2.013
  2 -0.009 -0.010  1.293   -0.014 -0.015  2.014
  3 -0.002 -0.004  1.293   -0.002 -0.006  2.014
  4  0.011  0.001  1.292    0.017  0.002  2.014
  5  0.001  0.002  1.292    0.001  0.003  2.013
  6  0.009  0.003  1.292    0.013  0.004  2.014
  7  0.001  0.019  1.291    0.001  0.029  2.012
  8 -0.002 -0.001  1.292   -0.003 -0.002  2.013
  9  0.015 -0.003  1.292    0.023 -0.005  2.014
 10  0.002  0.006  1.292    0.004  0.009  2.013
 11  0.013  0.007  1.292    0.020  0.010  2.014
 12  0.000  0.015  1.292   -0.000  0.023  2.014
 13 -0.001  0.023  1.292   -0.001  0.035  2.014
 14  0.005 -0.009  1.293    0.008 -0.014  2.015
 15 -0.007  0.001  1.292   -0.011  0.002  2.014
 16  0.001  0.014  1.293    0.002  0.021  2.015
 17 -0.000 -0.012  1.294   -0.000 -0.019  2.016
 18  0.000 -0.002  1.292    0.000 -0.003  2.014
 19  0.023  0.002  1.292    0.035  0.003  2.013
 20  0.015 -0.012  1.292    0.022 -0.018  2.013
 21  0.015 -0.005  1.292    0.022 -0.007  2.013
 22 -0.003  0.003  1.293   -0.005  0.004  2.014
 23  0.011 -0.005  1.291    0.017 -0.008  2.012
 24  0.001 -0.000  1.292    0.002 -0.000  2.013
 25 -0.007 -0.005  1.291   -0.011 -0.008  2.012
 26 -0.000  0.016  1.292   -0.000  0.025  2.013
 27 -0.004 -0.003  1.293   -0.007 -0.004  2.014
 28  0.009 -0.006  1.293    0.014 -0.009  2.014
 29 -0.002 -0.003  1.294   -0.003 -0.005  2.016
 30 -0.009  0.002  1.292   -0.014  0.002  2.013
 31  0.009  0.005  1.292    0.014  0.008  2.013
 32  0.002  0.003  1.292    0.004  0.005  2.013
 33  0.003  0.000  1.292    0.004  0.000  2.013
 34  0.003  0.004  1.292    0.005  0.006  2.014
 35  0.002  0.002  1.292    0.004  0.003  2.013
 36  0.005 -0.017  1.293    0.008 -0.027  2.014
 37  0.011  0.001  1.292    0.017  0.002  2.013
 38  0.001  0.010  1.293    0.001  0.015  2.015
 39  0.001  0.015  1.292    0.001  0.023  2.013
 40 -0.009 -0.005  1.292   -0.014 -0.007  2.013
 41  0.002 -0.005  1.293    0.002 -0.008  2.014
 42  0.002 -0.004  1.292    0.003 -0.006  2.013
 43 -0.009  0.004  1.291   -0.014  0.007  2.012
 44 -0.011  0.010  1.292   -0.017  0.015  2.014
 45 -0.003 -0.007  1.292   -0.005 -0.010  2.014
 46  0.005 -0.014  1.292    0.008 -0.021  2.014
 47  0.005 -0.004  1.292    0.008 -0.006  2.013
 48 -0.001  0.008  1.292   -0.002  0.012  2.014
 49 -0.009 -0.010  1.293   -0.015 -0.016  2.015
 50  0.003 -0.005  1.291    0.004 -0.008  2.012
 51 -0.007  0.000  1.291   -0.011  0.000  2.012
 52 -0.002  0.006  1.293   -0.003  0.009  2.015
 53 -0.002 -0.000  1.292   -0.004 -0.001  2.013
 54  0.002  0.014  1.292    0.003  0.022  2.014
DAV:   7    -0.445794638052E+03    0.21270E+01   -0.92836E+01 39872   0.347E+01    0.309E+01

 E_p =  0.40608E+00  lambda =  0.100E+02
<lVp>=  0.81215E+00
 DBL = -0.40608E+00
 ion        MW_int                 M_int
  1 -0.005  0.005  1.327   -0.008  0.008  2.063
  2  0.021  0.023  1.326    0.033  0.035  2.062
  3  0.003  0.012  1.325    0.005  0.018  2.061
  4 -0.030 -0.004  1.325   -0.045 -0.006  2.061
  5 -0.004 -0.006  1.327   -0.006 -0.008  2.064
  6 -0.022 -0.007  1.328   -0.033 -0.011  2.065
  7 -0.001 -0.047  1.326   -0.001 -0.072  2.061
  8  0.004  0.001  1.327    0.006  0.002  2.063
  9 -0.037  0.007  1.325   -0.057  0.011  2.061
 10 -0.007 -0.013  1.327   -0.010 -0.020  2.063
 11 -0.033 -0.017  1.327   -0.051 -0.027  2.064
 12  0.000 -0.037  1.327    0.000 -0.057  2.063
 13  0.002 -0.055  1.325    0.003 -0.085  2.060
 14 -0.011  0.024  1.326   -0.018  0.037  2.062
 15  0.018 -0.004  1.327    0.028 -0.006  2.063
 16 -0.003 -0.033  1.326   -0.004 -0.051  2.062
 17  0.001  0.029  1.326    0.001  0.045  2.062
 18  0.000  0.003  1.328    0.000  0.004  2.065
 19 -0.056 -0.007  1.324   -0.086 -0.010  2.058
 20 -0.036  0.028  1.326   -0.055  0.043  2.062
 21 -0.039  0.012  1.325   -0.059  0.018  2.061
 22  0.007 -0.006  1.327    0.011 -0.010  2.064
 23 -0.026  0.011  1.328   -0.041  0.017  2.064
 24 -0.004  0.001  1.328   -0.006  0.001  2.064
 25  0.016  0.012  1.328    0.025  0.019  2.065
 26  0.000 -0.040  1.326    0.000 -0.062  2.062
 27  0.011  0.005  1.327    0.017  0.009  2.064
 28 -0.022  0.014  1.326   -0.034  0.022  2.063
 29  0.005  0.010  1.326    0.007  0.015  2.062
 30  0.022 -0.005  1.327    0.034 -0.007  2.063
 31 -0.024 -0.013  1.327   -0.037 -0.021  2.063
 32 -0.006 -0.009  1.328   -0.009 -0.014  2.065
 33 -0.007 -0.000  1.328   -0.011 -0.000  2.065
 34 -0.009 -0.010  1.327   -0.014 -0.016  2.063
 35 -0.008 -0.007  1.328   -0.012 -0.010  2.065
 36 -0.013  0.043  1.325   -0.020  0.066  2.060
 37 -0.027 -0.003  1.327   -0.042 -0.004  2.064
 38 -0.002 -0.025  1.327   -0.003 -0.039  2.063
 39 -0.003 -0.037  1.326   -0.004 -0.057  2.062
 40  0.023  0.012  1.327    0.036  0.018  2.064
 41 -0.004  0.014  1.327   -0.005  0.022  2.064
 42 -0.006  0.011  1.328   -0.009  0.016  2.065
 43  0.021 -0.009  1.327    0.032 -0.014  2.064
 44  0.026 -0.025  1.325    0.040 -0.038  2.061
 45  0.009  0.016  1.327    0.013  0.024  2.064
 46 -0.013  0.032  1.327   -0.020  0.050  2.064
 47 -0.012  0.010  1.327   -0.018  0.015  2.063
 48  0.003 -0.018  1.327    0.004 -0.027  2.064
 49  0.023  0.025  1.326    0.035  0.038  2.062
 50 -0.005  0.014  1.327   -0.008  0.021  2.063
 51  0.017 -0.002  1.327    0.026 -0.003  2.063
 52  0.004 -0.014  1.327    0.007 -0.021  2.063
 53  0.006  0.001  1.328    0.009  0.001  2.064
 54 -0.004 -0.034  1.326   -0.007 -0.053  2.063
DAV:   8    -0.450394280882E+03   -0.45996E+01   -0.52112E+01 47824   0.356E+01    0.428E+01

 E_p =  0.12041E+00  lambda =  0.100E+02
<lVp>=  0.24082E+00
 DBL = -0.12041E+00
 ion        MW_int                 M_int
  1  0.005 -0.003  1.364    0.008 -0.005  2.116
  2 -0.010 -0.009  1.361   -0.017 -0.016  2.110
  3 -0.001 -0.011  1.361   -0.002 -0.018  2.112
  4  0.019  0.001  1.359    0.032  0.002  2.108
  5  0.006  0.003  1.366    0.010  0.006  2.119
  6  0.013  0.005  1.364    0.021  0.008  2.116
  7 -0.002  0.024  1.355   -0.003  0.041  2.101
  8 -0.000  0.001  1.365   -0.001  0.001  2.117
  9  0.021 -0.004  1.356    0.035 -0.006  2.104
 10  0.006  0.005  1.364    0.009  0.009  2.116
 11  0.019  0.011  1.359    0.031  0.018  2.107
 12 -0.000  0.019  1.360   -0.001  0.032  2.109
 13 -0.001  0.027  1.350   -0.002  0.046  2.095
 14  0.006 -0.013  1.360    0.010 -0.022  2.110
 15 -0.009  0.005  1.363   -0.016  0.009  2.114
 16 -0.001  0.017  1.359   -0.001  0.029  2.108
 17 -0.001 -0.016  1.359   -0.002 -0.026  2.108
 18 -0.000  0.002  1.366   -0.000  0.002  2.119
 19  0.028  0.004  1.348    0.046  0.006  2.091
 20  0.018 -0.013  1.357    0.030 -0.022  2.104
 21  0.024 -0.006  1.356    0.040 -0.010  2.104
 22 -0.002  0.003  1.365   -0.003  0.006  2.118
 23  0.013 -0.004  1.362    0.021 -0.007  2.112
 24  0.002 -0.001  1.365    0.004 -0.002  2.118
 25 -0.008 -0.007  1.364   -0.013 -0.012  2.115
 26  0.000  0.022  1.358    0.000  0.037  2.105
 27 -0.007 -0.001  1.365   -0.012 -0.002  2.117
 28  0.012 -0.008  1.362    0.021 -0.013  2.113
 29  0.000 -0.007  1.363   -0.000 -0.012  2.114
 30 -0.011  0.004  1.364   -0.019  0.007  2.114
 31  0.017  0.008  1.362    0.027  0.013  2.111
 32  0.003  0.008  1.366    0.006  0.013  2.118
 33  0.006 -0.001  1.366    0.009 -0.002  2.118
 34  0.006  0.006  1.364    0.009  0.011  2.116
 35  0.007  0.005  1.366    0.011  0.009  2.118
 36  0.007 -0.023  1.355    0.011 -0.038  2.101
 37  0.016  0.001  1.362    0.027  0.001  2.112
 38  0.003  0.016  1.362    0.004  0.026  2.113
 39  0.003  0.019  1.359    0.005  0.032  2.107
 40 -0.014 -0.006  1.363   -0.024 -0.011  2.114
 41  0.001 -0.009  1.364    0.002 -0.015  2.116
 42  0.005 -0.008  1.366    0.008 -0.013  2.118
 43 -0.011  0.003  1.364   -0.019  0.005  2.114
 44 -0.014  0.016  1.358   -0.023  0.026  2.106
 45 -0.005 -0.008  1.365   -0.009 -0.014  2.117
 46  0.008 -0.015  1.361    0.013 -0.026  2.110
 47  0.005 -0.005  1.364    0.009 -0.008  2.115
 48  0.000  0.009  1.365    0.000  0.015  2.117
 49 -0.011 -0.014  1.358   -0.018 -0.023  2.107
 50  0.001 -0.009  1.364    0.002 -0.015  2.115
 51 -0.009  0.004  1.363   -0.016  0.006  2.114
 52 -0.001  0.007  1.363   -0.002  0.011  2.114
 53 -0.002 -0.000  1.366   -0.004 -0.001  2.119
 54  0.002  0.017  1.360    0.003  0.029  2.109
DAV:   9    -0.446532705421E+03    0.38616E+01   -0.61498E+01 51716   0.364E+01    0.286E+01

 E_p =  0.10637E+01  lambda =  0.100E+02
<lVp>=  0.21274E+01
 DBL = -0.10637E+01
 ion        MW_int                 M_int
  1 -0.038  0.012  1.399   -0.060  0.020  2.165
  2 -0.023 -0.037  1.392   -0.035 -0.056  2.151
  3 -0.012  0.086  1.401   -0.020  0.136  2.163
  4 -0.070  0.008  1.379   -0.113  0.012  2.129
  5 -0.070 -0.011  1.396   -0.110 -0.018  2.160
  6 -0.027 -0.023  1.386   -0.046 -0.037  2.145
  7  0.039 -0.021  1.359    0.061 -0.039  2.102
  8 -0.031 -0.027  1.404   -0.048 -0.042  2.172
  9 -0.040 -0.003  1.375   -0.068 -0.004  2.122
 10 -0.043  0.021  1.393   -0.068  0.032  2.158
 11 -0.040 -0.033  1.370   -0.068 -0.054  2.120
 12  0.009 -0.005  1.376    0.014 -0.012  2.127
 13  0.008  0.009  1.349    0.013  0.007  2.081
 14  0.005  0.023  1.393    0.006  0.038  2.150
 15  0.003 -0.057  1.400    0.006 -0.092  2.164
 16  0.032 -0.003  1.385    0.051 -0.007  2.139
 17  0.013  0.011  1.394    0.021  0.020  2.152
 18  0.003 -0.054  1.394    0.004 -0.085  2.157
 19  0.020 -0.010  1.348    0.026 -0.016  2.076
 20  0.001 -0.026  1.362   -0.002 -0.039  2.103
 21 -0.080 -0.003  1.362   -0.130 -0.004  2.105
 22 -0.035 -0.003  1.402   -0.054 -0.005  2.168
 23  0.011 -0.030  1.376    0.014 -0.046  2.130
 24 -0.010  0.018  1.393   -0.016  0.028  2.157
 25 -0.013  0.017  1.378   -0.019  0.027  2.136
 26 -0.002 -0.033  1.367   -0.003 -0.056  2.113
 27  0.028 -0.030  1.401    0.045 -0.046  2.166
 28 -0.018  0.004  1.390   -0.031  0.006  2.147
 29 -0.043  0.041  1.409   -0.067  0.065  2.176
 30 -0.001 -0.032  1.392    0.002 -0.052  2.157
 31 -0.084 -0.018  1.385   -0.136 -0.030  2.144
 32 -0.010 -0.062  1.389   -0.017 -0.099  2.152
 33 -0.043  0.025  1.391   -0.069  0.040  2.156
 34 -0.018 -0.021  1.400   -0.030 -0.033  2.166
 35 -0.054 -0.038  1.391   -0.086 -0.061  2.155
 36 -0.001  0.024  1.365   -0.002  0.042  2.108
 37 -0.043  0.011  1.376   -0.069  0.018  2.126
 38 -0.027 -0.054  1.389   -0.043 -0.089  2.148
 39 -0.036 -0.003  1.376   -0.057 -0.010  2.126
 40  0.045  0.007  1.383    0.074  0.013  2.139
 41  0.006  0.036  1.398    0.008  0.058  2.163
 42 -0.037  0.043  1.383   -0.060  0.068  2.142
 43  0.006  0.037  1.377    0.011  0.057  2.133
 44  0.003 -0.052  1.382    0.007 -0.084  2.134
 45  0.020  0.008  1.391    0.032  0.015  2.151
 46 -0.027 -0.023  1.377   -0.044 -0.034  2.130
 47  0.016 -0.003  1.392    0.024 -0.004  2.155
 48 -0.029  0.002  1.395   -0.045  0.001  2.157
 49 -0.018  0.022  1.384   -0.026  0.037  2.136
 50  0.028  0.039  1.384    0.044  0.062  2.145
 51  0.020 -0.056  1.383    0.035 -0.089  2.143
 52 -0.011  0.005  1.402   -0.018  0.008  2.169
 53 -0.010  0.002  1.395   -0.016  0.003  2.156
 54  0.006  0.010  1.376    0.010  0.013  2.125
DAV:  10    -0.464876362800E+03   -0.18344E+02   -0.12368E+02 53872   0.569E+01    0.641E+01

 E_p =  0.44174E+00  lambda =  0.100E+02
<lVp>=  0.88349E+00
 DBL = -0.44174E+00
 ion        MW_int                 M_int
  1  0.021  0.001  1.411    0.030  0.003  2.180
  2  0.034  0.044  1.406    0.058  0.074  2.170
  3 -0.001 -0.035  1.378   -0.003 -0.060  2.125
  4  0.010 -0.004  1.369    0.011 -0.008  2.110
  5  0.034  0.003  1.393    0.052  0.003  2.152
  6  0.005  0.011  1.374   -0.001  0.014  2.122
  7 -0.014 -0.013  1.338   -0.022 -0.036  2.064
  8  0.022  0.020  1.418    0.035  0.033  2.191
  9 -0.004  0.011  1.374   -0.018  0.019  2.116
 10  0.022 -0.014  1.378    0.030 -0.026  2.130
 11  0.005  0.006  1.349   -0.005  0.004  2.081
 12  0.000 -0.022  1.385   -0.000 -0.044  2.137
 13 -0.005 -0.058  1.346   -0.008 -0.109  2.071
 14 -0.018  0.005  1.386   -0.034  0.009  2.136
 15  0.013  0.031  1.409    0.025  0.046  2.175
 16 -0.029 -0.022  1.395   -0.046 -0.043  2.152
 17 -0.015  0.029  1.379   -0.026  0.053  2.125
 18  0.001  0.038  1.387    0.001  0.059  2.142
 19 -0.086  0.006  1.307   -0.154  0.008  2.008
 20 -0.022  0.043  1.366   -0.044  0.073  2.105
 21  0.010  0.009  1.336    0.004  0.018  2.061
 22  0.029 -0.001  1.417    0.046 -0.004  2.188
 23 -0.011  0.023  1.355   -0.026  0.037  2.092
 24  0.008 -0.002  1.384    0.011 -0.003  2.140
 25  0.024  0.014  1.333    0.041  0.024  2.061
 26  0.005 -0.009  1.367    0.008 -0.026  2.107
 27 -0.007  0.021  1.417   -0.009  0.034  2.187
 28 -0.005  0.010  1.404   -0.015  0.018  2.165
 29  0.032 -0.017  1.399    0.054 -0.029  2.159
 30  0.013  0.014  1.377    0.027  0.018  2.129
 31  0.017 -0.007  1.355    0.016 -0.014  2.092
 32  0.005  0.016  1.361    0.004  0.021  2.103
 33  0.018 -0.004  1.347    0.022 -0.005  2.083
 34  0.007  0.008  1.417    0.008  0.011  2.190
 35  0.019  0.011  1.369    0.027  0.014  2.117
 36 -0.008  0.020  1.367   -0.017  0.042  2.109
 37  0.005 -0.011  1.377    0.002 -0.017  2.124
 38  0.018  0.009  1.386    0.027  0.006  2.141
 39  0.024 -0.021  1.375    0.035 -0.045  2.121
 40 -0.009  0.004  1.383   -0.008  0.009  2.135
 41 -0.002 -0.007  1.410   -0.006 -0.008  2.178
 42  0.017 -0.007  1.354    0.022 -0.008  2.092
 43  0.018 -0.013  1.346    0.033 -0.024  2.080
 44  0.019  0.018  1.375    0.036  0.024  2.121
 45 -0.010  0.008  1.409   -0.014  0.017  2.175
 46  0.014  0.042  1.368    0.016  0.073  2.112
 47 -0.014  0.004  1.394   -0.025  0.009  2.154
 48  0.021 -0.014  1.411    0.033 -0.027  2.178
 49  0.033  0.013  1.379    0.058  0.026  2.124
 50 -0.010 -0.002  1.337   -0.016  0.002  2.068
 51  0.001  0.016  1.351    0.008  0.022  2.088
 52  0.013 -0.015  1.424    0.019 -0.026  2.199
 53  0.016  0.003  1.411    0.024  0.006  2.177
 54 -0.010 -0.038  1.388   -0.016 -0.069  2.139
DAV:  11    -0.450598157459E+03    0.14278E+02   -0.15855E+02 54432   0.601E+01    0.404E+01

 E_p =  0.14873E+00  lambda =  0.100E+02
<lVp>=  0.29745E+00
 DBL = -0.14873E+00
 ion        MW_int                 M_int
  1 -0.014  0.001  1.417   -0.025  0.004  2.187
  2 -0.006 -0.009  1.408   -0.005 -0.009  2.173
  3  0.002  0.033  1.368    0.004  0.050  2.107
  4 -0.025 -0.000  1.375   -0.045 -0.001  2.119
  5 -0.017 -0.005  1.398   -0.029 -0.009  2.157
  6 -0.014 -0.008  1.379   -0.030 -0.017  2.128
  7  0.001 -0.022  1.343    0.003 -0.051  2.070
  8 -0.007 -0.011  1.421   -0.010 -0.016  2.194
  9 -0.024 -0.004  1.384   -0.049 -0.005  2.133
 10 -0.012 -0.006  1.377   -0.023 -0.014  2.125
 11 -0.021 -0.012  1.351   -0.046 -0.024  2.083
 12 -0.002 -0.011  1.397   -0.003 -0.027  2.155
 13  0.004  0.010  1.346    0.007  0.001  2.071
 14  0.004  0.012  1.390    0.001  0.022  2.142
 15  0.003 -0.022  1.410    0.009 -0.037  2.175
 16  0.017 -0.009  1.401    0.027 -0.023  2.160
 17  0.012 -0.001  1.375    0.018  0.005  2.117
 18 -0.001 -0.016  1.389   -0.001 -0.025  2.143
 19  0.026 -0.009  1.289    0.025 -0.015  1.980
 20 -0.006 -0.010  1.372   -0.018 -0.010  2.115
 21 -0.027  0.003  1.341   -0.054  0.008  2.066
 22 -0.012 -0.005  1.425   -0.017 -0.010  2.199
 23 -0.015 -0.001  1.362   -0.032 -0.000  2.102
 24 -0.006 -0.003  1.389   -0.010 -0.004  2.145
 25  0.001 -0.004  1.332    0.005 -0.003  2.058
 26 -0.003 -0.019  1.379   -0.005 -0.041  2.126
 27  0.010 -0.010  1.426    0.019 -0.014  2.200
 28 -0.012  0.002  1.416   -0.026  0.006  2.184
 29 -0.021  0.020  1.391   -0.030  0.030  2.144
 30  0.011 -0.006  1.372    0.024 -0.013  2.119
 31 -0.018 -0.004  1.345   -0.039 -0.009  2.072
 32 -0.005 -0.004  1.358   -0.011 -0.010  2.095
 33 -0.006 -0.005  1.337   -0.014 -0.005  2.064
 34 -0.011 -0.011  1.425   -0.020 -0.019  2.201
 35 -0.008 -0.005  1.364   -0.015 -0.011  2.106
 36 -0.005  0.013  1.379   -0.012  0.032  2.125
 37 -0.016  0.005  1.388   -0.032  0.009  2.140
 38 -0.013 -0.019  1.389   -0.022 -0.038  2.142
 39 -0.015 -0.013  1.384   -0.026 -0.031  2.134
 40  0.018  0.004  1.391    0.036  0.009  2.146
 41 -0.002  0.010  1.416   -0.005  0.019  2.186
 42 -0.008  0.005  1.357   -0.016  0.011  2.094
 43  0.004 -0.007  1.351    0.012 -0.015  2.085
 44  0.004 -0.030  1.378    0.014 -0.053  2.124
 45  0.012  0.003  1.424    0.022  0.010  2.198
 46 -0.014 -0.001  1.371   -0.028  0.005  2.115
 47 -0.004  0.007  1.398   -0.009  0.014  2.159
 48 -0.009 -0.003  1.419   -0.015 -0.009  2.190
 49 -0.013  0.008  1.383   -0.015  0.018  2.129
 50 -0.005  0.004  1.328   -0.009  0.011  2.050
 51  0.009  0.001  1.347    0.022 -0.000  2.079
 52 -0.005 -0.001  1.430   -0.009 -0.005  2.207
 53 -0.005  0.000  1.421   -0.007  0.002  2.192
 54  0.004  0.006  1.396    0.007  0.002  2.151
DAV:  12    -0.446583471089E+03    0.40147E+01   -0.65054E+01 50820   0.347E+01    0.256E+01

 E_p =  0.52001E-01  lambda =  0.100E+02
<lVp>=  0.10400E+00
 DBL = -0.52001E-01
 ion        MW_int                 M_int
  1  0.000  0.002  1.430   -0.001  0.005  2.204
  2  0.006  0.006  1.421    0.015  0.015  2.190
  3  0.002 -0.004  1.370    0.004 -0.007  2.107
  4  0.001 -0.001  1.390   -0.003 -0.003  2.140
  5 -0.002 -0.000  1.410   -0.005 -0.002  2.174
  6 -0.004 -0.003  1.390   -0.014 -0.007  2.143
  7  0.006 -0.004  1.356    0.010 -0.021  2.089
  8 -0.001  0.001  1.431    0.000  0.002  2.207
  9 -0.001  0.005  1.403   -0.012  0.010  2.160
 10 -0.005  0.004  1.383   -0.011  0.002  2.131
 11 -0.007 -0.004  1.361   -0.021 -0.011  2.097
 12  0.003 -0.007  1.416    0.005 -0.020  2.183
 13 -0.001 -0.028  1.359   -0.001 -0.059  2.092
 14 -0.005  0.006  1.405   -0.012  0.012  2.163
 15  0.006  0.005  1.419    0.014  0.007  2.186
 16 -0.005 -0.006  1.415   -0.008 -0.018  2.180
 17 -0.003  0.010  1.382   -0.006  0.022  2.126
 18  0.000 -0.000  1.399    0.001  0.000  2.157
 19 -0.033  0.003  1.289   -0.068  0.003  1.977
 20 -0.009  0.016  1.389   -0.022  0.030  2.141
 21 -0.005 -0.000  1.355   -0.018  0.002  2.085
 22  0.004  0.001  1.440    0.008 -0.002  2.221
 23  0.004 -0.003  1.376   -0.002 -0.002  2.122
 24 -0.000  0.006  1.400   -0.001  0.009  2.160
 25 -0.003  0.005  1.338   -0.001  0.011  2.064
 26  0.002 -0.005  1.397    0.003 -0.018  2.154
 27  0.001  0.007  1.442    0.005  0.012  2.224
 28  0.000  0.005  1.434   -0.005  0.010  2.211
 29  0.005 -0.001  1.393    0.010 -0.002  2.142
 30 -0.001 -0.006  1.377    0.004 -0.011  2.122
 31 -0.011 -0.003  1.347   -0.027 -0.008  2.072
 32 -0.002 -0.011  1.363   -0.006 -0.020  2.100
 33 -0.011  0.006  1.335   -0.020  0.010  2.058
 34  0.002 -0.001  1.438    0.001 -0.003  2.219
 35 -0.008 -0.007  1.369   -0.014 -0.013  2.109
 36  0.001  0.009  1.399   -0.002  0.024  2.155
 37 -0.006 -0.003  1.405   -0.014 -0.005  2.167
 38  0.002 -0.004  1.400    0.002 -0.014  2.157
 39  0.004 -0.004  1.400    0.004 -0.016  2.158
 40  0.003  0.003  1.405    0.011  0.008  2.167
 41  0.002  0.006  1.430    0.002  0.013  2.204
 42 -0.005  0.008  1.369   -0.011  0.015  2.110
 43  0.001  0.009  1.361    0.007  0.011  2.100
 44  0.007  0.001  1.390    0.017 -0.003  2.140
 45 -0.001  0.005  1.444    0.000  0.012  2.228
 46 -0.001  0.006  1.384   -0.006  0.016  2.133
 47  0.003 -0.002  1.410    0.003  0.000  2.175
 48  0.003 -0.003  1.433    0.005 -0.010  2.211
 49  0.019  0.005  1.397    0.034  0.013  2.149
 50  0.006  0.007  1.326    0.008  0.015  2.045
 51  0.002 -0.012  1.352    0.010 -0.020  2.084
 52  0.002 -0.001  1.442    0.003 -0.005  2.224
 53  0.004 -0.001  1.434    0.007 -0.000  2.213
 54 -0.005 -0.017  1.413   -0.008 -0.034  2.178
DAV:  13    -0.445260267512E+03    0.13232E+01   -0.18876E+01 52584   0.211E+01    0.168E+01

 E_p =  0.12149E+00  lambda =  0.100E+02
<lVp>=  0.24298E+00
 DBL = -0.12149E+00
 ion        MW_int                 M_int
  1  0.003 -0.001  1.455    0.004 -0.001  2.241
  2  0.005  0.008  1.445    0.013  0.017  2.225
  3 -0.005 -0.000  1.389   -0.007 -0.001  2.135
  4 -0.017  0.002  1.416   -0.029  0.002  2.178
  5  0.011 -0.001  1.433    0.017 -0.002  2.207
  6  0.001  0.006  1.414   -0.002  0.008  2.177
  7 -0.017 -0.012  1.381   -0.027 -0.030  2.126
  8  0.010  0.006  1.456    0.017  0.010  2.243
  9 -0.015 -0.006  1.430   -0.030 -0.008  2.201
 10  0.013 -0.016  1.404    0.020 -0.028  2.162
 11  0.003  0.002  1.384   -0.004 -0.000  2.131
 12 -0.007 -0.006  1.443   -0.010 -0.017  2.224
 13  0.002  0.022  1.381    0.004  0.024  2.123
 14  0.003 -0.002  1.431    0.002  0.001  2.201
 15 -0.003 -0.005  1.440   -0.000 -0.007  2.217
 16  0.001 -0.005  1.442    0.001 -0.013  2.219
 17  0.003  0.001  1.406    0.004  0.007  2.161
 18  0.001  0.011  1.422    0.001  0.020  2.189
 19  0.025 -0.005  1.300    0.028 -0.009  1.992
 20 -0.003 -0.012  1.413   -0.011 -0.013  2.175
 21 -0.004  0.008  1.379   -0.012  0.014  2.121
 22  0.002 -0.003  1.466    0.005 -0.006  2.258
 23 -0.022  0.018  1.399   -0.040  0.031  2.155
 24  0.001 -0.012  1.424    0.001 -0.019  2.195
 25  0.021 -0.001  1.356    0.037  0.001  2.091
 26 -0.004 -0.010  1.424   -0.006 -0.023  2.193
 27  0.001 -0.007  1.468    0.003 -0.008  2.261
 28 -0.013 -0.001  1.461   -0.023  0.002  2.250
 29  0.005 -0.001  1.412    0.010 -0.001  2.169
 30  0.015  0.015  1.397    0.028  0.023  2.153
 31  0.020 -0.002  1.366    0.025 -0.006  2.100
 32  0.005  0.022  1.384    0.007  0.034  2.131
 33  0.026 -0.015  1.352    0.040 -0.023  2.082
 34 -0.006 -0.002  1.462   -0.011 -0.004  2.253
 35  0.016  0.015  1.389    0.025  0.023  2.139
 36 -0.010  0.004  1.429   -0.017  0.013  2.199
 37 -0.000  0.003  1.431   -0.005  0.005  2.204
 38  0.002  0.001  1.425    0.003 -0.003  2.193
 39 -0.004 -0.013  1.425   -0.006 -0.027  2.194
 40  0.001  0.001  1.430    0.006  0.003  2.202
 41 -0.006 -0.009  1.456   -0.010 -0.012  2.243
 42  0.014 -0.016  1.390    0.021 -0.023  2.141
 43  0.014 -0.025  1.382    0.026 -0.042  2.131
 44  0.002 -0.005  1.414    0.007 -0.011  2.175
 45  0.003 -0.002  1.471    0.006  0.000  2.267
 46 -0.001  0.012  1.408   -0.003  0.026  2.168
 47 -0.015  0.008  1.434   -0.027  0.014  2.211
 48 -0.001 -0.005  1.459    0.000 -0.011  2.246
 49 -0.021  0.005  1.420   -0.029  0.011  2.183
 50 -0.016 -0.009  1.344   -0.027 -0.011  2.071
 51  0.004  0.029  1.374    0.009  0.046  2.117
 52  0.002 -0.008  1.468    0.003 -0.015  2.261
 53 -0.003  0.000  1.457   -0.004  0.001  2.245
 54  0.006  0.011  1.438    0.009  0.011  2.213
DAV:  14    -0.446130092734E+03   -0.86983E+00   -0.17968E+01 48944   0.199E+01    0.204E+01

 E_p =  0.57193E-02  lambda =  0.100E+02
<lVp>=  0.11439E-01
 DBL = -0.57193E-02
 ion        MW_int                 M_int
  1 -0.000 -0.001  1.466   -0.000 -0.000  2.257
  2 -0.003 -0.003  1.456   -0.001 -0.000  2.242
  3  0.002  0.001  1.400    0.004  0.002  2.151
  4  0.006 -0.001  1.426    0.007 -0.001  2.193
  5 -0.002  0.000  1.443   -0.002  0.000  2.221
  6  0.001 -0.000  1.425   -0.002 -0.001  2.194
  7  0.002  0.004  1.392    0.002 -0.001  2.142
  8 -0.002 -0.002  1.467   -0.003 -0.002  2.259
  9  0.004  0.000  1.440    0.001  0.002  2.216
 10 -0.001  0.003  1.414   -0.002  0.002  2.177
 11  0.001  0.001  1.396   -0.005 -0.002  2.148
 12  0.001  0.004  1.453    0.001 -0.000  2.239
 13  0.000  0.004  1.389    0.001 -0.003  2.135
 14 -0.000 -0.001  1.441   -0.002  0.001  2.216
 15 -0.001  0.000  1.451    0.002  0.002  2.233
 16  0.001  0.003  1.453   -0.000 -0.000  2.236
 17 -0.000 -0.004  1.417   -0.000 -0.001  2.178
 18 -0.001 -0.003  1.431   -0.001 -0.002  2.204
 19  0.002  0.000  1.308   -0.006  0.000  2.003
 20  0.003 -0.002  1.423    0.000  0.002  2.188
 21  0.003 -0.001  1.390   -0.001 -0.001  2.137
 22 -0.001  0.001  1.476   -0.000  0.000  2.273
 23  0.004 -0.003  1.407    0.002 -0.002  2.167
 24 -0.000  0.001  1.434   -0.000  0.002  2.210
 25 -0.005 -0.002  1.365   -0.005 -0.001  2.104
 26  0.001  0.004  1.435    0.002  0.001  2.208
 27 -0.001 -0.000  1.477   -0.001  0.002  2.275
 28  0.003 -0.001  1.471    0.003  0.001  2.263
 29 -0.003  0.001  1.422   -0.003  0.002  2.186
 30 -0.003 -0.002  1.408   -0.002 -0.004  2.169
 31 -0.002  0.003  1.377   -0.008  0.003  2.117
 32 -0.001 -0.001  1.393   -0.003 -0.003  2.145
 33 -0.004  0.002  1.361   -0.008  0.003  2.096
 34  0.002  0.001  1.473    0.002 -0.000  2.268
 35 -0.000 -0.002  1.399   -0.002 -0.005  2.154
 36  0.003 -0.004  1.439    0.003 -0.001  2.214
 37  0.002 -0.001  1.440   -0.000 -0.002  2.217
 38 -0.001  0.002  1.436   -0.002  0.000  2.209
 39  0.000  0.004  1.435    0.001 -0.000  2.209
 40 -0.002 -0.001  1.440    0.000  0.001  2.217
 41  0.001  0.000  1.466    0.001  0.002  2.259
 42 -0.002  0.002  1.398   -0.003  0.005  2.153
 43 -0.005  0.003  1.390   -0.004  0.003  2.141
 44 -0.004  0.001  1.425   -0.002 -0.000  2.192
 45  0.000 -0.001  1.480    0.001  0.001  2.280
 46  0.001 -0.004  1.420   -0.000 -0.001  2.185
 47  0.002 -0.001  1.444    0.002  0.000  2.226
 48  0.000  0.002  1.468    0.002  0.000  2.261
 49  0.001 -0.003  1.428    0.005 -0.002  2.195
 50  0.002  0.000  1.356    0.002  0.002  2.088
 51 -0.003 -0.004  1.383   -0.003 -0.006  2.130
 52 -0.001  0.002  1.479   -0.000  0.001  2.278
 53  0.000  0.001  1.467    0.002  0.002  2.259
 54 -0.000  0.002  1.447   -0.001 -0.002  2.226
DAV:  15    -0.444649895027E+03    0.14802E+01   -0.10384E+01 50624   0.158E+01    0.806E+00

 E_p =  0.77419E-02  lambda =  0.100E+02
<lVp>=  0.15484E-01
 DBL = -0.77419E-02
 ion        MW_int                 M_int
  1 -0.001  0.001  1.470   -0.002  0.002  2.264
  2 -0.001 -0.003  1.463    0.002 -0.001  2.254
  3 -0.005 -0.003  1.410   -0.007 -0.005  2.169
  4 -0.005  0.002  1.431   -0.011  0.002  2.202
  5  0.000  0.000  1.448   -0.000 -0.001  2.231
  6  0.003 -0.000  1.432    0.001 -0.001  2.205
  7  0.002  0.006  1.399    0.004  0.003  2.154
  8  0.002  0.002  1.472    0.003  0.003  2.268
  9  0.004 -0.002  1.444    0.001 -0.002  2.222
 10 -0.001  0.002  1.423   -0.002  0.001  2.192
 11  0.006  0.002  1.404    0.005  0.001  2.161
 12  0.000  0.003  1.456    0.001 -0.001  2.244
 13 -0.002 -0.000  1.398   -0.003 -0.009  2.150
 14  0.004 -0.002  1.445    0.005  0.000  2.224
 15 -0.003 -0.001  1.458   -0.002 -0.001  2.246
 16  0.001  0.004  1.458    0.000  0.001  2.245
 17  0.000  0.001  1.426    0.000  0.005  2.194
 18  0.002  0.001  1.439    0.003  0.002  2.216
 19  0.005  0.002  1.324   -0.001  0.003  2.031
 20  0.003  0.000  1.429   -0.001  0.005  2.199
 21  0.003 -0.002  1.398    0.000 -0.002  2.151
 22 -0.000  0.001  1.478    0.001  0.000  2.278
 23  0.005 -0.002  1.413    0.005 -0.001  2.177
 24  0.000  0.000  1.440    0.000  0.001  2.219
 25  0.002  0.002  1.376    0.006  0.006  2.121
 26 -0.001  0.003  1.439   -0.002 -0.001  2.216
 27  0.002 -0.000  1.480    0.004  0.001  2.279
 28  0.002 -0.000  1.473   -0.000  0.002  2.268
 29  0.004 -0.003  1.433    0.007 -0.004  2.205
 30 -0.001  0.003  1.417    0.001  0.004  2.184
 31  0.006 -0.005  1.388    0.006 -0.010  2.137
 32  0.004 -0.003  1.403    0.005 -0.006  2.160
 33  0.006 -0.002  1.374    0.008 -0.003  2.116
 34 -0.001  0.001  1.477   -0.003 -0.000  2.277
 35 -0.003  0.003  1.408   -0.007  0.003  2.169
 36 -0.001 -0.002  1.441   -0.003  0.002  2.218
 37  0.000  0.002  1.445   -0.003  0.003  2.225
 38  0.003 -0.001  1.441    0.004 -0.006  2.219
 39 -0.001  0.005  1.440   -0.001  0.003  2.218
 40 -0.002 -0.001  1.446    0.001  0.001  2.227
 41  0.000 -0.000  1.470    0.000  0.002  2.265
 42  0.001 -0.004  1.405    0.000 -0.004  2.164
 43  0.004  0.004  1.398    0.009  0.006  2.153
 44  0.002  0.003  1.431    0.007  0.002  2.203
 45 -0.004 -0.001  1.481   -0.005  0.001  2.282
 46  0.002 -0.002  1.427    0.001  0.002  2.198
 47  0.002 -0.004  1.449    0.001 -0.004  2.233
 48 -0.003  0.002  1.472   -0.003 -0.000  2.268
 49 -0.004  0.001  1.434   -0.001  0.004  2.205
 50  0.001 -0.001  1.369    0.002  0.000  2.109
 51  0.004  0.002  1.392    0.010  0.002  2.144
 52 -0.000  0.000  1.483    0.001 -0.002  2.285
 53 -0.001 -0.003  1.472   -0.001 -0.004  2.267
 54 -0.000  0.002  1.452   -0.001 -0.003  2.235
DAV:  16    -0.444733721153E+03   -0.83826E-01   -0.16088E+00 51324   0.623E+00    0.796E+00

 E_p =  0.10023E-01  lambda =  0.100E+02
<lVp>=  0.20046E-01
 DBL = -0.10023E-01
 ion        MW_int                 M_int
  1  0.003 -0.001  1.472    0.003 -0.001  2.269
  2 -0.000  0.002  1.466    0.003  0.006  2.260
  3  0.006  0.002  1.421    0.009  0.003  2.187
  4  0.010 -0.002  1.437    0.013 -0.004  2.212
  5  0.001  0.001  1.453    0.000  0.000  2.239
  6 -0.000  0.002  1.438   -0.004  0.002  2.216
  7 -0.004 -0.003  1.407   -0.006 -0.010  2.166
  8 -0.002 -0.002  1.475   -0.002 -0.003  2.274
  9 -0.001  0.002  1.446   -0.005  0.005  2.227
 10  0.003 -0.001  1.430    0.003 -0.003  2.204
 11 -0.004 -0.001  1.411   -0.010 -0.003  2.173
 12 -0.000  0.000  1.458   -0.000 -0.004  2.248
 13  0.002  0.006  1.408    0.004  0.002  2.167
 14 -0.004 -0.000  1.450   -0.009  0.002  2.232
 15  0.002  0.002  1.462    0.006  0.003  2.253
 16 -0.002 -0.001  1.462   -0.003 -0.007  2.252
 17 -0.001 -0.003  1.433   -0.002 -0.002  2.207
 18 -0.002 -0.000  1.445   -0.004 -0.000  2.227
 19 -0.004 -0.002  1.344   -0.014 -0.003  2.065
 20  0.001 -0.003  1.436   -0.004 -0.001  2.212
 21  0.001  0.002  1.406   -0.003  0.005  2.164
 22  0.000 -0.000  1.480    0.002 -0.001  2.281
 23 -0.004  0.002  1.421   -0.009  0.004  2.190
 24  0.000 -0.001  1.446   -0.000 -0.001  2.229
 25 -0.005 -0.004  1.389   -0.005 -0.005  2.142
 26  0.002  0.001  1.444    0.003 -0.004  2.224
 27 -0.004  0.000  1.480   -0.004  0.002  2.282
 28  0.001 -0.001  1.474   -0.002  0.001  2.271
 29 -0.005  0.002  1.443   -0.006  0.004  2.223
 30 -0.001 -0.002  1.425    0.002 -0.005  2.196
 31 -0.004  0.008  1.398   -0.010  0.010  2.154
 32 -0.004  0.005  1.412   -0.007  0.005  2.176
 33 -0.006  0.002  1.386   -0.011  0.003  2.136
 34  0.003  0.001  1.478    0.004 -0.000  2.279
 35  0.006 -0.002  1.417    0.008 -0.004  2.184
 36  0.002 -0.002  1.445    0.002  0.002  2.225
 37  0.003 -0.003  1.450    0.001 -0.005  2.234
 38 -0.003  0.005  1.447   -0.005  0.004  2.229
 39  0.002 -0.003  1.444    0.003 -0.009  2.224
 40 -0.001 -0.000  1.451    0.001  0.001  2.236
 41  0.001 -0.002  1.472    0.000 -0.001  2.269
 42  0.001  0.002  1.414   -0.000  0.006  2.179
 43 -0.007 -0.005  1.408   -0.008 -0.008  2.169
 44 -0.006 -0.000  1.437   -0.005 -0.003  2.213
 45  0.003 -0.000  1.481    0.006  0.002  2.283
 46  0.000 -0.000  1.434   -0.001  0.004  2.209
 47 -0.002  0.004  1.453   -0.004  0.007  2.240
 48  0.003 -0.000  1.475    0.006 -0.003  2.273
 49  0.002 -0.004  1.441    0.007 -0.003  2.218
 50 -0.002 -0.000  1.383   -0.003  0.002  2.131
 51 -0.008 -0.001  1.403   -0.010 -0.003  2.161
 52 -0.000  0.001  1.484   -0.000  0.000  2.287
 53  0.002  0.004  1.475    0.003  0.006  2.273
 54  0.001  0.002  1.457    0.000 -0.002  2.244
DAV:  17    -0.444765916508E+03   -0.32195E-01   -0.21485E+00 52444   0.721E+00    0.748E+00

 E_p =  0.25768E-02  lambda =  0.100E+02
<lVp>=  0.51537E-02
 DBL = -0.25768E-02
 ion        MW_int                 M_int
  1 -0.001  0.000  1.475   -0.003  0.001  2.275
  2  0.000 -0.000  1.468    0.002  0.001  2.265
  3 -0.002 -0.001  1.434   -0.003 -0.001  2.210
  4 -0.003  0.001  1.443   -0.008  0.001  2.225
  5 -0.000 -0.000  1.459   -0.002 -0.001  2.250
  6  0.001 -0.001  1.446   -0.002 -0.003  2.229
  7  0.003  0.002  1.417    0.006 -0.001  2.184
  8  0.000  0.000  1.477    0.001  0.001  2.278
  9  0.001 -0.001  1.450   -0.001 -0.000  2.235
 10 -0.002  0.002  1.439   -0.004  0.002  2.219
 11  0.002  0.000  1.421   -0.000 -0.001  2.190
 12  0.000 -0.000  1.461    0.001 -0.004  2.254
 13 -0.001 -0.005  1.421   -0.002 -0.014  2.190
 14  0.002  0.000  1.455    0.001  0.003  2.243
 15 -0.001 -0.000  1.465    0.001 -0.001  2.258
 16  0.000  0.001  1.465    0.000 -0.002  2.259
 17  0.000  0.001  1.442    0.000  0.005  2.221
 18  0.001 -0.000  1.453    0.002 -0.000  2.241
 19  0.001  0.001  1.370   -0.006  0.002  2.109
 20 -0.001  0.003  1.446   -0.005  0.008  2.229
 21 -0.000 -0.002  1.416   -0.004 -0.002  2.183
 22  0.000  0.000  1.481    0.001  0.000  2.285
 23  0.003 -0.001  1.432    0.003 -0.002  2.208
 24 -0.000  0.001  1.452   -0.001  0.003  2.240
 25  0.002  0.003  1.406    0.004  0.006  2.169
 26 -0.001  0.000  1.449   -0.001 -0.004  2.234
 27  0.001  0.000  1.481    0.003  0.002  2.285
 28  0.000  0.001  1.476   -0.002  0.003  2.276
 29  0.002 -0.000  1.454    0.004 -0.000  2.241
 30 -0.001 -0.000  1.434    0.001 -0.001  2.211
 31  0.001 -0.003  1.411   -0.001 -0.006  2.174
 32  0.002 -0.003  1.425    0.002 -0.006  2.196
 33  0.001  0.000  1.402   -0.000  0.001  2.161
 34 -0.001 -0.000  1.478   -0.002 -0.002  2.280
 35 -0.004 -0.000  1.428   -0.008 -0.002  2.202
 36 -0.000  0.000  1.449   -0.002  0.005  2.234
 37 -0.001  0.001  1.456   -0.005  0.001  2.245
 38  0.001 -0.002  1.453    0.002 -0.005  2.240
 39  0.000  0.002  1.448    0.000 -0.001  2.233
 40  0.000  0.000  1.456    0.003  0.002  2.245
 41 -0.000  0.002  1.474   -0.001  0.005  2.273
 42 -0.001  0.000  1.427   -0.003  0.002  2.201
 43  0.003  0.004  1.421    0.008  0.006  2.192
 44  0.003  0.001  1.444    0.007 -0.001  2.226
 45 -0.001  0.000  1.482   -0.001  0.002  2.285
 46  0.000  0.000  1.442   -0.001  0.004  2.223
 47  0.002 -0.002  1.458    0.002 -0.002  2.249
 48 -0.001  0.000  1.476   -0.001 -0.001  2.277
 49  0.001  0.001  1.449    0.005  0.005  2.233
 50  0.002  0.001  1.400    0.003  0.003  2.159
 51  0.004 -0.001  1.417    0.009 -0.003  2.185
 52  0.001 -0.000  1.483    0.002 -0.002  2.288
 53 -0.000 -0.002  1.477    0.000 -0.002  2.278
 54 -0.001 -0.002  1.463   -0.002 -0.008  2.256
DAV:  18    -0.444668814735E+03    0.97102E-01   -0.14587E+00 52528   0.579E+00    0.468E+00

 E_p =  0.92794E-03  lambda =  0.100E+02
<lVp>=  0.18559E-02
 DBL = -0.92794E-03
 ion        MW_int                 M_int
  1  0.001  0.000  1.476    0.001  0.001  2.278
  2  0.000  0.000  1.471    0.003  0.002  2.269
  3  0.001  0.000  1.441    0.002  0.001  2.222
  4  0.001 -0.000  1.448   -0.000 -0.001  2.232
  5 -0.001  0.000  1.463   -0.001  0.000  2.256
  6 -0.001  0.001  1.450   -0.003  0.001  2.236
  7 -0.002 -0.002  1.423   -0.003 -0.006  2.194
  8 -0.000 -0.000  1.478    0.000  0.000  2.280
  9 -0.001  0.001  1.454   -0.004  0.002  2.242
 10  0.001 -0.001  1.444    0.000 -0.002  2.228
 11 -0.002 -0.000  1.427   -0.006 -0.002  2.200
 12  0.000 -0.000  1.464    0.000 -0.004  2.258
 13  0.001  0.001  1.429    0.001 -0.004  2.203
 14 -0.001  0.000  1.459   -0.003  0.002  2.249
 15  0.001 -0.000  1.467    0.003 -0.000  2.263
 16 -0.000 -0.001  1.468   -0.001 -0.005  2.264
 17 -0.001  0.001  1.447   -0.001  0.003  2.230
 18 -0.001  0.000  1.457   -0.001  0.000  2.248
 19 -0.005 -0.001  1.385   -0.013 -0.001  2.133
 20  0.000 -0.000  1.451   -0.003  0.003  2.238
 21 -0.000  0.002  1.423   -0.004  0.003  2.194
 22 -0.000 -0.000  1.482    0.001 -0.001  2.287
 23 -0.002  0.000  1.438   -0.005  0.002  2.218
 24  0.000 -0.001  1.456    0.000 -0.001  2.246
 25 -0.002 -0.001  1.415   -0.002 -0.001  2.182
 26  0.001 -0.001  1.453    0.001 -0.004  2.240
 27 -0.000  0.000  1.482    0.001  0.001  2.287
 28  0.000 -0.000  1.477   -0.001  0.001  2.279
 29 -0.001 -0.000  1.459   -0.001 -0.000  2.250
 30  0.000  0.001  1.440    0.002  0.000  2.220
 31 -0.002 -0.000  1.419   -0.004 -0.001  2.187
 32 -0.001 -0.000  1.431   -0.002 -0.001  2.208
 33 -0.001 -0.000  1.411   -0.002  0.000  2.176
 34  0.000  0.000  1.478   -0.000 -0.000  2.281
 35  0.002  0.000  1.434    0.002 -0.000  2.212
 36 -0.000  0.001  1.452   -0.001  0.005  2.239
 37  0.000 -0.000  1.459   -0.002 -0.001  2.250
 38 -0.001 -0.000  1.456   -0.001 -0.002  2.246
 39 -0.001 -0.000  1.452   -0.001 -0.004  2.239
 40  0.000 -0.000  1.458    0.003  0.001  2.249
 41  0.001 -0.001  1.475    0.001 -0.000  2.276
 42  0.000 -0.000  1.435   -0.001  0.001  2.213
 43 -0.003 -0.001  1.428   -0.002 -0.003  2.203
 44 -0.001 -0.000  1.449    0.001 -0.002  2.234
 45  0.000  0.000  1.482    0.001  0.002  2.287
 46  0.000  0.000  1.447   -0.001  0.003  2.231
 47 -0.001  0.001  1.461   -0.002  0.002  2.254
 48 -0.000 -0.001  1.477    0.000 -0.002  2.278
 49  0.000  0.000  1.454    0.003  0.002  2.241
 50 -0.001 -0.000  1.410   -0.002  0.001  2.174
 51 -0.002 -0.000  1.425   -0.002 -0.000  2.198
 52 -0.001 -0.000  1.484   -0.002 -0.001  2.289
 53  0.000  0.001  1.478    0.001  0.001  2.280
 54 -0.000  0.000  1.466   -0.001 -0.003  2.262
DAV:  19    -0.444657955284E+03    0.10859E-01   -0.53824E-01 53452   0.368E+00    0.372E+00

 E_p =  0.14206E-02  lambda =  0.100E+02
<lVp>=  0.28413E-02
 DBL = -0.14206E-02
 ion        MW_int                 M_int
  1 -0.001 -0.001  1.480   -0.001 -0.002  2.284
  2 -0.000  0.001  1.475    0.001  0.003  2.276
  3  0.001  0.000  1.455    0.002  0.001  2.246
  4  0.001 -0.001  1.457    0.001 -0.001  2.248
  5  0.001 -0.001  1.469    0.003 -0.001  2.267
  6  0.001 -0.001  1.459    0.001 -0.002  2.251
  7  0.002  0.001  1.438    0.003 -0.002  2.218
  8 -0.000 -0.001  1.481    0.000 -0.001  2.287
  9 -0.000 -0.000  1.461   -0.002  0.000  2.255
 10 -0.000  0.000  1.455    0.000 -0.001  2.246
 11  0.001  0.000  1.441   -0.000 -0.001  2.223
 12 -0.001 -0.000  1.469   -0.001 -0.002  2.267
 13 -0.000 -0.000  1.445   -0.000 -0.003  2.230
 14 -0.000  0.000  1.466   -0.000  0.002  2.262
 15  0.000  0.001  1.473    0.001  0.001  2.273
 16  0.000  0.000  1.474   -0.000 -0.001  2.275
 17  0.001 -0.001  1.459    0.001 -0.001  2.250
 18  0.000 -0.000  1.465    0.000  0.001  2.261
 19  0.005  0.000  1.414    0.006  0.000  2.180
 20 -0.001 -0.000  1.462   -0.003  0.001  2.256
 21  0.000 -0.001  1.437   -0.001 -0.001  2.217
 22  0.000  0.000  1.484    0.002  0.000  2.291
 23  0.000  0.000  1.450   -0.001  0.002  2.237
 24 -0.001  0.001  1.464   -0.001  0.001  2.260
 25  0.002  0.001  1.432    0.005  0.002  2.210
 26 -0.000 -0.000  1.460   -0.001 -0.002  2.253
 27 -0.001 -0.000  1.483   -0.002  0.000  2.290
 28 -0.001  0.001  1.480   -0.003  0.002  2.284
 29  0.000  0.002  1.469    0.000  0.004  2.267
 30  0.000 -0.002  1.452    0.001 -0.003  2.240
 31  0.001  0.003  1.435   -0.000  0.004  2.214
 32  0.000  0.002  1.446    0.001  0.004  2.231
 33 -0.001  0.001  1.431   -0.001  0.001  2.207
 34  0.000 -0.001  1.480    0.000 -0.001  2.284
 35 -0.000 -0.002  1.448   -0.000 -0.002  2.234
 36  0.001 -0.001  1.459    0.000  0.001  2.251
 37 -0.000 -0.001  1.466   -0.001 -0.001  2.262
 38 -0.000  0.002  1.464   -0.000  0.002  2.259
 39  0.002 -0.002  1.459    0.003 -0.005  2.251
 40 -0.000  0.001  1.465    0.000  0.001  2.261
 41 -0.002  0.001  1.478   -0.002  0.001  2.282
 42  0.000  0.002  1.448    0.001  0.002  2.234
 43  0.003 -0.000  1.443    0.005 -0.001  2.226
 44 -0.000 -0.000  1.458    0.001 -0.001  2.250
 45  0.002  0.000  1.483    0.003  0.000  2.290
 46 -0.001  0.001  1.457   -0.001  0.003  2.249
 47 -0.000  0.001  1.468   -0.001  0.001  2.265
 48  0.001  0.000  1.480    0.003 -0.000  2.284
 49  0.001 -0.001  1.464    0.003  0.000  2.258
 50  0.001  0.001  1.430    0.000  0.001  2.207
 51  0.002 -0.000  1.442    0.004  0.001  2.225
 52  0.002  0.000  1.486    0.004 -0.000  2.293
 53 -0.000  0.001  1.482    0.000  0.001  2.287
 54  0.001 -0.001  1.473    0.001 -0.003  2.273
DAV:  20    -0.444653480431E+03    0.44749E-02   -0.57543E-01 44380   0.315E+00    0.272E+00

 E_p =  0.11466E-02  lambda =  0.100E+02
<lVp>=  0.22932E-02
 DBL = -0.11466E-02
 ion        MW_int                 M_int
  1  0.000  0.001  1.480    0.001  0.002  2.285
  2 -0.000 -0.002  1.476    0.001 -0.001  2.278
  3 -0.001  0.000  1.459   -0.002  0.001  2.251
  4 -0.002  0.001  1.460   -0.003  0.001  2.252
  5 -0.001  0.000  1.470   -0.002  0.001  2.269
  6 -0.001  0.001  1.461   -0.002  0.001  2.255
  7 -0.002  0.000  1.442   -0.003 -0.002  2.224
  8  0.000  0.001  1.482    0.001  0.001  2.287
  9  0.000 -0.000  1.463   -0.002 -0.000  2.258
 10  0.000 -0.000  1.458    0.001 -0.001  2.251
 11 -0.001 -0.000  1.444   -0.002 -0.001  2.229
 12  0.000  0.000  1.470    0.001 -0.001  2.269
 13  0.000  0.001  1.450    0.000 -0.000  2.237
 14  0.000 -0.000  1.468    0.000  0.000  2.265
 15 -0.000 -0.001  1.473    0.000 -0.002  2.274
 16  0.000 -0.000  1.475    0.000 -0.001  2.277
 17 -0.000  0.001  1.462   -0.000  0.003  2.255
 18 -0.000 -0.000  1.467   -0.000  0.001  2.264
 19 -0.003 -0.000  1.423   -0.007 -0.001  2.194
 20  0.001 -0.000  1.464    0.001  0.001  2.260
 21 -0.000  0.001  1.442   -0.002  0.002  2.224
 22 -0.001 -0.000  1.484   -0.001 -0.000  2.291
 23 -0.000 -0.000  1.453   -0.002  0.000  2.243
 24  0.000 -0.001  1.466    0.001 -0.002  2.263
 25 -0.002 -0.001  1.438   -0.002 -0.001  2.219
 26  0.000  0.000  1.462    0.000 -0.001  2.257
 27  0.001 -0.000  1.483    0.002  0.000  2.290
 28  0.001 -0.001  1.480    0.001 -0.000  2.285
 29 -0.000 -0.002  1.472   -0.000 -0.002  2.271
 30 -0.000  0.002  1.455    0.001  0.003  2.246
 31  0.000 -0.003  1.440   -0.001 -0.006  2.222
 32 -0.001 -0.002  1.450   -0.001 -0.003  2.238
 33  0.001 -0.001  1.436    0.002 -0.002  2.216
 34 -0.001  0.000  1.480   -0.001  0.000  2.285
 35  0.000  0.002  1.451    0.000  0.003  2.240
 36 -0.000  0.000  1.461   -0.001  0.002  2.255
 37 -0.000  0.001  1.467   -0.001  0.001  2.265
 38  0.000 -0.002  1.466    0.000 -0.004  2.262
 39 -0.002  0.002  1.461   -0.003  0.001  2.255
 40  0.000 -0.001  1.467    0.001 -0.000  2.264
 41  0.001 -0.001  1.479    0.002 -0.001  2.282
 42 -0.000 -0.001  1.452   -0.000 -0.002  2.241
 43 -0.002 -0.000  1.447   -0.002 -0.001  2.233
 44 -0.000 -0.000  1.461    0.001 -0.001  2.254
 45 -0.001 -0.000  1.483   -0.002  0.000  2.289
 46  0.000 -0.001  1.460    0.000  0.000  2.253
 47  0.000 -0.001  1.469   -0.000 -0.001  2.268
 48 -0.001 -0.000  1.480   -0.002 -0.001  2.285
 49 -0.002  0.000  1.466   -0.002  0.002  2.262
 50 -0.001 -0.001  1.436   -0.002 -0.001  2.216
 51 -0.002  0.000  1.446   -0.002  0.001  2.232
 52 -0.002 -0.000  1.485   -0.003 -0.001  2.293
 53  0.000 -0.001  1.482    0.000 -0.001  2.288
 54 -0.001  0.001  1.474   -0.001  0.001  2.275
DAV:  21    -0.444655198284E+03   -0.17179E-02   -0.36762E-01 46620   0.297E+00    0.232E+00

 E_p =  0.15085E-03  lambda =  0.100E+02
<lVp>=  0.30170E-03
 DBL = -0.15085E-03
 ion        MW_int                 M_int
  1 -0.000 -0.000  1.479   -0.001 -0.000  2.284
  2  0.000  0.000  1.476    0.001  0.001  2.279
  3  0.001  0.001  1.462    0.001  0.001  2.256
  4  0.000 -0.000  1.462   -0.001 -0.001  2.257
  5  0.000 -0.000  1.470   -0.000 -0.001  2.270
  6  0.000 -0.000  1.463   -0.001 -0.001  2.259
  7  0.001  0.000  1.446    0.001 -0.002  2.231
  8 -0.000 -0.000  1.481   -0.000 -0.001  2.287
  9  0.000  0.000  1.464   -0.001  0.000  2.261
 10 -0.000  0.000  1.461   -0.001 -0.001  2.255
 11  0.000  0.000  1.448   -0.001 -0.001  2.235
 12 -0.000  0.000  1.470   -0.000 -0.001  2.270
 13  0.000  0.000  1.454    0.000 -0.002  2.244
 14  0.000  0.000  1.469   -0.000  0.001  2.267
 15 -0.000 -0.000  1.474    0.001 -0.000  2.275
 16  0.000  0.000  1.475    0.000 -0.001  2.277
 17  0.000 -0.000  1.464    0.000  0.000  2.259
 18  0.000 -0.000  1.468    0.000 -0.000  2.267
 19  0.002  0.000  1.432    0.002  0.000  2.209
 20  0.000 -0.000  1.466   -0.002  0.000  2.263
 21  0.000 -0.000  1.446   -0.001  0.000  2.232
 22  0.000  0.000  1.482    0.000 -0.000  2.289
 23  0.000  0.000  1.456   -0.001  0.000  2.248
 24 -0.000  0.000  1.466   -0.000  0.000  2.264
 25  0.001  0.000  1.443    0.002  0.001  2.228
 26 -0.000 -0.000  1.464   -0.000 -0.002  2.260
 27 -0.000 -0.000  1.482    0.000 -0.000  2.288
 28 -0.000 -0.000  1.479   -0.002  0.001  2.284
 29  0.000  0.001  1.473    0.001  0.001  2.275
 30 -0.000 -0.000  1.458    0.001 -0.001  2.250
 31  0.000  0.001  1.445   -0.001  0.001  2.230
 32  0.000  0.001  1.453    0.000  0.000  2.243
 33 -0.000  0.000  1.442   -0.001  0.001  2.225
 34  0.000 -0.000  1.479   -0.000 -0.001  2.284
 35 -0.000 -0.000  1.455   -0.001 -0.001  2.246
 36  0.000 -0.000  1.463   -0.000  0.001  2.258
 37  0.000 -0.000  1.468   -0.001 -0.001  2.267
 38  0.000  0.001  1.467   -0.000 -0.000  2.265
 39  0.000 -0.000  1.463    0.001 -0.002  2.258
 40  0.000  0.000  1.468    0.002  0.001  2.266
 41 -0.000  0.000  1.478   -0.001  0.001  2.281
 42  0.000  0.000  1.456   -0.000  0.001  2.247
 43  0.000  0.000  1.451    0.002 -0.000  2.240
 44 -0.000 -0.000  1.463    0.001 -0.001  2.258
 45  0.000  0.000  1.481    0.001  0.001  2.287
 46 -0.000 -0.000  1.462   -0.001  0.001  2.257
 47  0.000  0.000  1.470   -0.001  0.001  2.269
 48  0.000  0.000  1.479    0.001 -0.001  2.284
 49  0.000 -0.000  1.468    0.001  0.001  2.265
 50  0.000  0.000  1.441    0.000  0.001  2.224
 51  0.001 -0.000  1.450    0.003 -0.000  2.238
 52  0.000  0.000  1.484    0.001  0.000  2.291
 53 -0.000  0.000  1.481    0.000  0.000  2.286
 54  0.000 -0.000  1.475    0.000 -0.002  2.277
DAV:  22    -0.444640676494E+03    0.14522E-01   -0.36504E-01 37996   0.210E+00    0.131E+00

 E_p =  0.72164E-03  lambda =  0.100E+02
<lVp>=  0.14433E-02
 DBL = -0.72164E-03
 ion        MW_int                 M_int
  1 -0.001 -0.001  1.476   -0.002 -0.002  2.279
  2 -0.002  0.000  1.474   -0.003  0.001  2.276
  3 -0.002 -0.000  1.465   -0.002 -0.000  2.262
  4 -0.000  0.000  1.465   -0.001  0.000  2.262
  5  0.001 -0.000  1.470    0.002 -0.001  2.269
  6  0.002 -0.001  1.465    0.002 -0.003  2.263
  7  0.001  0.000  1.453    0.002  0.000  2.243
  8 -0.000 -0.000  1.478   -0.000 -0.000  2.282
  9 -0.000 -0.002  1.466   -0.001 -0.002  2.263
 10  0.001  0.001  1.464    0.001  0.001  2.260
 11 -0.000 -0.000  1.454   -0.001 -0.000  2.245
 12 -0.001 -0.000  1.470   -0.002 -0.001  2.269
 13 -0.000 -0.000  1.460   -0.001 -0.001  2.253
 14 -0.000 -0.000  1.469   -0.001 -0.000  2.269
 15 -0.001  0.001  1.472   -0.001  0.002  2.273
 16 -0.000  0.002  1.474   -0.001  0.002  2.276
 17  0.001 -0.001  1.467    0.002 -0.001  2.264
 18 -0.001  0.000  1.469   -0.001  0.000  2.268
 19 -0.001 -0.001  1.446   -0.003 -0.001  2.231
 20 -0.001  0.001  1.467   -0.002  0.001  2.266
 21  0.000 -0.002  1.454   -0.001 -0.003  2.244
 22 -0.000  0.000  1.478   -0.000  0.000  2.283
 23  0.000  0.001  1.460   -0.000  0.001  2.255
 24 -0.000  0.000  1.467   -0.001  0.001  2.265
 25 -0.000  0.000  1.452    0.000  0.001  2.242
 26  0.000  0.001  1.466    0.001  0.001  2.264
 27 -0.000  0.001  1.478   -0.001  0.002  2.282
 28 -0.000  0.001  1.476   -0.001  0.002  2.280
 29 -0.002  0.000  1.474   -0.003  0.001  2.276
 30 -0.001 -0.001  1.462   -0.001 -0.002  2.257
 31 -0.001 -0.000  1.453   -0.002 -0.000  2.242
 32 -0.001  0.001  1.459   -0.001  0.001  2.252
 33 -0.000 -0.001  1.451   -0.001 -0.001  2.240
 34 -0.000 -0.001  1.476   -0.000 -0.002  2.280
 35 -0.001 -0.000  1.459   -0.002 -0.001  2.253
 36  0.000 -0.000  1.465    0.001  0.000  2.262
 37 -0.000  0.001  1.469   -0.001  0.001  2.269
 38 -0.001  0.001  1.468   -0.002  0.001  2.267
 39 -0.000 -0.000  1.465    0.000 -0.001  2.262
 40 -0.002 -0.000  1.469   -0.003  0.000  2.268
 41 -0.000  0.001  1.475   -0.001  0.002  2.278
 42  0.000 -0.000  1.460   -0.000  0.001  2.255
 43  0.001 -0.001  1.457    0.003 -0.001  2.250
 44  0.000  0.000  1.465    0.000  0.000  2.262
 45  0.001 -0.001  1.477    0.002 -0.001  2.281
 46 -0.000 -0.000  1.464   -0.000  0.001  2.261
 47  0.000 -0.001  1.469   -0.000 -0.001  2.269
 48 -0.000  0.001  1.476    0.000  0.001  2.280
 49 -0.000  0.000  1.469    0.000  0.001  2.268
 50 -0.001 -0.001  1.450   -0.001 -0.001  2.239
 51 -0.002 -0.000  1.457   -0.002 -0.001  2.249
 52  0.000 -0.001  1.480    0.001 -0.002  2.285
 53 -0.001 -0.001  1.477   -0.001 -0.001  2.282
 54 -0.000  0.000  1.474   -0.000 -0.001  2.275
DAV:  23    -0.444651228307E+03   -0.10552E-01   -0.21924E-01 39676   0.176E+00    0.160E+00

 E_p =  0.12971E-03  lambda =  0.100E+02
<lVp>=  0.25941E-03
 DBL = -0.12971E-03
 ion        MW_int                 M_int
  1  0.000  0.000  1.475    0.000  0.001  2.278
  2  0.001 -0.000  1.473    0.002  0.000  2.275
  3  0.001 -0.000  1.466    0.001 -0.000  2.264
  4  0.000 -0.000  1.466    0.000 -0.000  2.263
  5 -0.000  0.000  1.469   -0.001 -0.000  2.269
  6 -0.000  0.001  1.466   -0.001  0.000  2.264
  7 -0.000 -0.000  1.455    0.000 -0.000  2.247
  8 -0.000 -0.000  1.477   -0.000 -0.000  2.281
  9  0.000  0.001  1.466    0.000  0.001  2.264
 10 -0.000 -0.000  1.464   -0.001 -0.000  2.261
 11  0.000  0.000  1.456    0.000 -0.000  2.248
 12  0.000  0.000  1.469    0.001 -0.000  2.269
 13  0.000 -0.000  1.461    0.000 -0.001  2.256
 14  0.000  0.000  1.469   -0.000  0.001  2.269
 15  0.000 -0.000  1.472    0.001 -0.000  2.272
 16  0.000 -0.001  1.473    0.000 -0.001  2.275
 17 -0.000  0.000  1.467   -0.001  0.001  2.265
 18  0.000 -0.000  1.469    0.000 -0.000  2.268
 19  0.001  0.001  1.450    0.001  0.001  2.237
 20  0.000  0.000  1.468   -0.000  0.000  2.266
 21  0.000  0.001  1.456   -0.000  0.001  2.247
 22  0.000 -0.000  1.477    0.001 -0.000  2.282
 23  0.000 -0.000  1.461    0.000 -0.001  2.257
 24  0.000 -0.000  1.467    0.000  0.000  2.266
 25  0.000 -0.000  1.454    0.001  0.000  2.245
 26 -0.000 -0.000  1.467   -0.000 -0.001  2.265
 27  0.000 -0.000  1.476   -0.000 -0.000  2.280
 28  0.000 -0.001  1.475   -0.000 -0.000  2.278
 29  0.001 -0.000  1.474    0.001  0.000  2.276
 30  0.000  0.000  1.462    0.000 -0.000  2.258
 31  0.000  0.000  1.455    0.000  0.001  2.246
 32  0.000 -0.000  1.460    0.000 -0.000  2.254
 33 -0.000  0.001  1.453   -0.001  0.001  2.244
 34  0.000  0.000  1.475    0.000  0.000  2.278
 35  0.000  0.000  1.461    0.000 -0.001  2.255
 36 -0.000 -0.000  1.466   -0.000  0.000  2.263
 37  0.000 -0.000  1.469    0.000 -0.001  2.269
 38  0.000 -0.000  1.468    0.001 -0.000  2.267
 39  0.000  0.000  1.465    0.001 -0.000  2.263
 40  0.001 -0.000  1.469    0.001  0.000  2.268
 41  0.000 -0.000  1.474   -0.000 -0.000  2.277
 42 -0.000  0.000  1.462   -0.000  0.001  2.257
 43 -0.000  0.001  1.459    0.000  0.001  2.253
 44 -0.000  0.000  1.466    0.000 -0.000  2.264
 45 -0.000  0.000  1.476   -0.000  0.001  2.279
 46  0.000 -0.000  1.465   -0.000  0.000  2.262
 47  0.000  0.000  1.469    0.000  0.001  2.269
 48  0.000 -0.000  1.475    0.001 -0.001  2.278
 49  0.000 -0.000  1.469    0.001 -0.000  2.269
 50  0.000  0.001  1.453    0.001  0.001  2.243
 51  0.001 -0.000  1.458    0.002 -0.001  2.252
 52  0.000  0.001  1.478    0.000  0.001  2.283
 53  0.000  0.000  1.476    0.000  0.001  2.280
 54 -0.000  0.000  1.473    0.000 -0.001  2.275
DAV:  24    -0.444646699587E+03    0.45287E-02   -0.92546E-02 47208   0.160E+00    0.933E-01

 E_p =  0.27162E-04  lambda =  0.100E+02
<lVp>=  0.54325E-04
 DBL = -0.27162E-04
 ion        MW_int                 M_int
  1  0.000 -0.000  1.474   -0.000 -0.000  2.276
  2 -0.000  0.000  1.472   -0.000  0.001  2.274
  3 -0.000 -0.000  1.467   -0.000 -0.000  2.265
  4 -0.000  0.000  1.467   -0.001 -0.000  2.265
  5  0.000 -0.000  1.469    0.000 -0.000  2.269
  6  0.000 -0.000  1.467   -0.000 -0.000  2.265
  7 -0.000  0.000  1.458    0.000 -0.001  2.251
  8  0.000 -0.000  1.475    0.000 -0.000  2.279
  9 -0.000 -0.000  1.467   -0.001  0.000  2.266
 10  0.000  0.000  1.465   -0.000 -0.000  2.263
 11 -0.000  0.000  1.459   -0.001 -0.000  2.252
 12 -0.000 -0.000  1.469   -0.000 -0.001  2.269
 13  0.000  0.000  1.463    0.000 -0.001  2.259
 14 -0.000  0.000  1.470   -0.001  0.000  2.269
 15  0.000  0.000  1.471    0.000  0.000  2.272
 16 -0.000  0.000  1.473   -0.000 -0.000  2.274
 17  0.000  0.000  1.468    0.000  0.000  2.267
 18  0.000  0.000  1.469    0.000  0.000  2.268
 19 -0.000 -0.000  1.454   -0.001 -0.000  2.244
 20 -0.000 -0.000  1.468   -0.001  0.000  2.267
 21 -0.000 -0.000  1.458   -0.001 -0.000  2.251
 22 -0.000 -0.000  1.476    0.000 -0.000  2.279
 23  0.000  0.000  1.463   -0.000  0.000  2.259
 24 -0.000  0.000  1.468   -0.001  0.000  2.267
 25  0.000  0.000  1.457    0.001  0.000  2.249
 26 -0.000 -0.000  1.467   -0.000 -0.001  2.266
 27 -0.000 -0.000  1.475    0.000 -0.000  2.278
 28 -0.000  0.000  1.474   -0.001  0.001  2.277
 29 -0.000  0.000  1.473    0.000  0.000  2.275
 30 -0.000 -0.000  1.464    0.000 -0.000  2.260
 31 -0.000  0.000  1.457   -0.001  0.000  2.250
 32  0.000  0.000  1.462    0.000  0.000  2.257
 33  0.000 -0.000  1.456   -0.000  0.000  2.248
 34  0.000  0.000  1.474   -0.000 -0.000  2.276
 35 -0.000 -0.000  1.462   -0.001 -0.000  2.258
 36  0.000 -0.000  1.467   -0.000  0.001  2.264
 37 -0.000 -0.000  1.469   -0.000 -0.000  2.269
 38  0.000  0.000  1.469    0.000  0.000  2.268
 39  0.000 -0.000  1.466    0.000 -0.001  2.264
 40 -0.000  0.000  1.469    0.000  0.000  2.268
 41 -0.000  0.000  1.473   -0.000  0.000  2.276
 42  0.000 -0.000  1.463    0.000  0.000  2.259
 43  0.000 -0.000  1.461    0.001 -0.000  2.256
 44 -0.000 -0.000  1.467    0.000 -0.001  2.265
 45 -0.000 -0.000  1.474    0.000  0.000  2.277
 46 -0.000  0.000  1.466   -0.001  0.001  2.263
 47 -0.000 -0.000  1.469   -0.000  0.000  2.269
 48  0.000  0.000  1.474    0.000 -0.000  2.277
 49  0.000  0.000  1.470    0.001  0.001  2.269
 50 -0.000 -0.000  1.456   -0.000  0.000  2.248
 51 -0.000  0.000  1.460    0.000 -0.000  2.255
 52 -0.000 -0.000  1.477    0.000 -0.000  2.281
 53  0.000 -0.000  1.475    0.000 -0.000  2.278
 54  0.000 -0.000  1.472    0.000 -0.001  2.274
DAV:  25    -0.444647177014E+03   -0.47743E-03   -0.13028E-01 30212   0.100E+00    0.686E-01

 E_p =  0.67756E-04  lambda =  0.100E+02
<lVp>=  0.13551E-03
 DBL = -0.67756E-04
 ion        MW_int                 M_int
  1 -0.000 -0.000  1.473   -0.000 -0.000  2.275
  2  0.000 -0.000  1.472    0.001  0.000  2.273
  3  0.000  0.000  1.468    0.000  0.001  2.267
  4 -0.000 -0.000  1.468   -0.001 -0.000  2.266
  5 -0.000  0.000  1.469   -0.000  0.000  2.269
  6 -0.000  0.000  1.467   -0.000  0.000  2.266
  7 -0.000 -0.000  1.461   -0.000 -0.001  2.256
  8  0.000  0.000  1.474    0.000  0.001  2.277
  9  0.001 -0.000  1.468    0.000 -0.000  2.267
 10  0.000 -0.000  1.467    0.000 -0.001  2.265
 11  0.000  0.000  1.461   -0.000 -0.000  2.256
 12  0.000 -0.000  1.469    0.000 -0.001  2.269
 13 -0.000  0.000  1.465   -0.000 -0.001  2.262
 14  0.000 -0.000  1.470    0.000  0.000  2.270
 15  0.000 -0.000  1.471    0.000 -0.000  2.271
 16  0.000 -0.000  1.472    0.001 -0.001  2.274
 17 -0.000  0.000  1.469   -0.000  0.000  2.268
 18  0.000  0.000  1.469   -0.000  0.000  2.269
 19 -0.000  0.000  1.459   -0.001  0.000  2.252
 20 -0.000  0.000  1.468   -0.001  0.001  2.268
 21 -0.000  0.001  1.461   -0.001  0.001  2.255
 22 -0.000  0.000  1.474    0.000  0.000  2.276
 23 -0.000  0.000  1.464   -0.001  0.001  2.262
 24  0.001 -0.000  1.469    0.001 -0.000  2.268
 25 -0.000 -0.000  1.460    0.000  0.000  2.254
 26  0.000  0.000  1.468    0.000 -0.000  2.266
 27  0.000  0.000  1.474    0.000  0.000  2.276
 28 -0.000 -0.000  1.473   -0.001 -0.000  2.275
 29 -0.000 -0.000  1.472    0.000 -0.000  2.274
 30  0.000  0.000  1.465    0.001  0.000  2.262
 31  0.000 -0.000  1.460    0.000 -0.001  2.255
 32 -0.000  0.000  1.464   -0.001  0.000  2.261
 33  0.000 -0.000  1.459    0.000 -0.000  2.254
 34  0.000 -0.000  1.473   -0.000 -0.001  2.275
 35  0.001  0.000  1.464    0.001  0.000  2.261
 36 -0.000  0.000  1.467   -0.001  0.001  2.266
 37 -0.000  0.000  1.469   -0.001  0.000  2.269
 38 -0.000 -0.001  1.469   -0.000 -0.001  2.268
 39  0.000  0.000  1.467   -0.000 -0.001  2.265
 40  0.000  0.000  1.469    0.001  0.000  2.269
 41 -0.000 -0.000  1.473   -0.000 -0.000  2.274
 42 -0.000  0.000  1.465   -0.000  0.000  2.262
 43  0.000 -0.000  1.463    0.001 -0.000  2.260
 44  0.000  0.000  1.468    0.001 -0.000  2.266
 45  0.000  0.000  1.473    0.000  0.000  2.275
 46  0.000 -0.000  1.467    0.000  0.000  2.265
 47 -0.000  0.000  1.469   -0.001  0.001  2.269
 48  0.000 -0.000  1.473    0.000 -0.001  2.275
 49 -0.000 -0.000  1.470   -0.000 -0.000  2.270
 50  0.000  0.000  1.460    0.000  0.000  2.254
 51  0.000  0.000  1.463    0.001  0.001  2.259
 52  0.000 -0.000  1.475    0.000 -0.001  2.278
 53 -0.000  0.000  1.474   -0.000  0.000  2.276
 54 -0.000  0.000  1.472   -0.000 -0.000  2.273
DAV:  26    -0.444650024178E+03   -0.28472E-02   -0.39042E-02 39396   0.826E-01    0.724E-01

 E_p =  0.85181E-04  lambda =  0.100E+02
<lVp>=  0.17036E-03
 DBL = -0.85181E-04
 ion        MW_int                 M_int
  1  0.000  0.000  1.472    0.001  0.000  2.274
  2 -0.000  0.000  1.471   -0.000  0.001  2.271
  3 -0.000 -0.000  1.469   -0.001 -0.001  2.268
  4 -0.000  0.000  1.469   -0.001  0.000  2.268
  5  0.000 -0.000  1.469    0.000 -0.000  2.269
  6 -0.000  0.000  1.468   -0.000  0.000  2.267
  7 -0.000 -0.000  1.463   -0.001 -0.001  2.259
  8 -0.000 -0.000  1.473    0.000 -0.000  2.275
  9 -0.001  0.000  1.469   -0.002  0.000  2.268
 10  0.000  0.000  1.467    0.001 -0.000  2.266
 11 -0.000 -0.000  1.463   -0.001 -0.000  2.260
 12 -0.000 -0.000  1.469   -0.000 -0.001  2.269
 13  0.000  0.000  1.467    0.000 -0.000  2.264
 14 -0.000  0.000  1.470   -0.001  0.000  2.270
 15 -0.000 -0.000  1.470    0.000 -0.000  2.271
 16 -0.001  0.000  1.472   -0.001  0.000  2.273
 17  0.000  0.000  1.469    0.000  0.001  2.269
 18  0.000  0.000  1.469    0.000  0.000  2.269
 19 -0.000 -0.000  1.462   -0.001 -0.001  2.257
 20  0.000 -0.000  1.469   -0.000 -0.000  2.268
 21 -0.000 -0.000  1.463   -0.000 -0.000  2.259
 22  0.000 -0.000  1.473    0.000 -0.000  2.274
 23  0.000  0.000  1.466   -0.000  0.001  2.264
 24 -0.001 -0.000  1.469   -0.001 -0.000  2.269
 25  0.000 -0.000  1.462    0.000  0.000  2.258
 26 -0.000 -0.000  1.468   -0.000 -0.001  2.267
 27  0.000 -0.000  1.472    0.000 -0.000  2.274
 28 -0.000  0.000  1.473   -0.000  0.000  2.274
 29  0.000  0.000  1.472    0.000  0.000  2.273
 30  0.000  0.000  1.466    0.001  0.001  2.264
 31 -0.000 -0.000  1.463   -0.000 -0.000  2.259
 32  0.001  0.000  1.466    0.001  0.000  2.263
 33  0.001 -0.000  1.462    0.001 -0.000  2.258
 34 -0.000  0.000  1.472   -0.000  0.001  2.273
 35 -0.000  0.000  1.466   -0.000  0.001  2.264
 36  0.000 -0.000  1.468    0.000  0.000  2.267
 37  0.000 -0.000  1.469   -0.000 -0.000  2.269
 38  0.000  0.000  1.469    0.000  0.000  2.268
 39 -0.000 -0.000  1.467   -0.000 -0.001  2.266
 40 -0.000 -0.000  1.469   -0.000 -0.000  2.269
 41  0.000 -0.000  1.472    0.000 -0.000  2.273
 42  0.001 -0.001  1.466    0.001 -0.001  2.264
 43 -0.000 -0.000  1.465    0.000 -0.001  2.263
 44  0.000 -0.000  1.468    0.000 -0.000  2.267
 45 -0.000 -0.000  1.472   -0.000  0.000  2.273
 46 -0.000  0.000  1.468   -0.000  0.001  2.266
 47  0.000 -0.000  1.470   -0.000 -0.000  2.269
 48 -0.000  0.000  1.472   -0.000  0.000  2.274
 49  0.000  0.001  1.471    0.000  0.001  2.271
 50 -0.000 -0.000  1.463   -0.001 -0.001  2.258
 51 -0.000  0.000  1.465   -0.001  0.000  2.262
 52 -0.000  0.000  1.474   -0.001 -0.000  2.276
 53  0.000 -0.000  1.473    0.000 -0.000  2.274
 54  0.000  0.000  1.472    0.000 -0.000  2.272
DAV:  27    -0.444651886508E+03   -0.18623E-02   -0.43632E-02 39508   0.820E-01    0.658E-01

 E_p =  0.14907E-03  lambda =  0.100E+02
<lVp>=  0.29813E-03
 DBL = -0.14907E-03
 ion        MW_int                 M_int
  1 -0.001 -0.000  1.471   -0.001 -0.001  2.272
  2  0.000 -0.000  1.470    0.000  0.000  2.270
  3 -0.000  0.000  1.469   -0.000  0.001  2.269
  4 -0.000 -0.000  1.470   -0.001 -0.000  2.269
  5  0.000  0.000  1.469    0.000  0.000  2.269
  6  0.000 -0.000  1.469    0.000 -0.000  2.268
  7  0.000  0.000  1.466   -0.000  0.000  2.264
  8  0.000  0.000  1.472    0.001  0.001  2.273
  9  0.001 -0.001  1.469    0.002 -0.001  2.269
 10 -0.000 -0.000  1.469    0.000 -0.001  2.268
 11  0.000 -0.000  1.466    0.000 -0.000  2.264
 12 -0.000 -0.000  1.470   -0.000 -0.000  2.269
 13 -0.000  0.000  1.468   -0.000  0.000  2.267
 14  0.000 -0.000  1.470    0.000 -0.000  2.270
 15  0.000  0.000  1.470    0.000  0.001  2.270
 16  0.001 -0.000  1.471    0.001 -0.000  2.272
 17  0.000 -0.000  1.470    0.000 -0.000  2.270
 18 -0.000 -0.000  1.470   -0.000  0.000  2.269
 19 -0.001 -0.000  1.466   -0.001 -0.000  2.264
 20 -0.001  0.000  1.469   -0.001  0.001  2.269
 21 -0.000  0.000  1.466   -0.000  0.000  2.264
 22 -0.000  0.000  1.471   -0.000  0.000  2.272
 23 -0.001  0.000  1.467   -0.001  0.000  2.266
 24  0.001 -0.000  1.470    0.001 -0.000  2.270
 25  0.000  0.000  1.466    0.000  0.000  2.263
 26  0.000  0.001  1.469    0.001  0.001  2.268
 27 -0.000  0.000  1.471   -0.000  0.001  2.272
 28 -0.000  0.000  1.472   -0.000  0.000  2.273
 29 -0.000 -0.000  1.471   -0.001 -0.000  2.271
 30 -0.000 -0.000  1.468   -0.000  0.000  2.267
 31  0.000 -0.000  1.466    0.001 -0.001  2.263
 32 -0.001  0.000  1.468   -0.001  0.000  2.267
 33 -0.000 -0.000  1.466   -0.000 -0.001  2.263
 34  0.000 -0.001  1.471    0.000 -0.001  2.272
 35  0.001 -0.000  1.468    0.001 -0.000  2.267
 36 -0.000  0.000  1.469   -0.001  0.001  2.269
 37 -0.000  0.001  1.470   -0.001  0.001  2.269
 38 -0.000 -0.000  1.469   -0.001 -0.001  2.269
 39  0.000 -0.000  1.468    0.000 -0.000  2.268
 40  0.000  0.000  1.469   -0.000  0.000  2.269
 41 -0.000  0.000  1.471   -0.001  0.000  2.272
 42 -0.001  0.000  1.468   -0.001  0.001  2.267
 43  0.001 -0.000  1.468    0.001 -0.001  2.266
 44  0.000  0.000  1.469    0.000  0.000  2.268
 45  0.000 -0.000  1.471    0.001 -0.000  2.272
 46  0.000 -0.000  1.469    0.000 -0.000  2.268
 47 -0.000  0.000  1.470   -0.001  0.000  2.270
 48  0.000 -0.000  1.471    0.000 -0.001  2.272
 49 -0.001 -0.000  1.471   -0.001 -0.001  2.271
 50  0.000  0.000  1.466   -0.000  0.000  2.263
 51  0.000  0.000  1.468   -0.000  0.001  2.266
 52  0.000 -0.001  1.472    0.000 -0.001  2.273
 53 -0.000 -0.000  1.471   -0.000 -0.000  2.272
 54 -0.000 -0.000  1.471   -0.000 -0.000  2.271
DAV:  28    -0.444652910290E+03   -0.10238E-02   -0.82107E-02 37184   0.961E-01    0.733E-01

 E_p =  0.29173E-04  lambda =  0.100E+02
<lVp>=  0.58345E-04
 DBL = -0.29173E-04
 ion        MW_int                 M_int
  1  0.000  0.000  1.471    0.001  0.000  2.271
  2 -0.000  0.000  1.470    0.000  0.000  2.270
  3  0.000 -0.000  1.470    0.000  0.000  2.270
  4  0.000  0.000  1.470    0.000  0.001  2.270
  5  0.000  0.000  1.469    0.000  0.000  2.269
  6  0.000  0.000  1.469    0.000  0.000  2.269
  7  0.000 -0.000  1.469    0.000 -0.000  2.268
  8 -0.000 -0.000  1.471   -0.000 -0.000  2.271
  9 -0.000  0.000  1.470   -0.001  0.000  2.270
 10  0.000  0.000  1.470    0.000  0.000  2.269
 11 -0.000  0.000  1.468   -0.000  0.000  2.267
 12  0.000  0.000  1.470    0.000 -0.000  2.270
 13  0.000 -0.000  1.470    0.000 -0.001  2.270
 14 -0.000  0.000  1.470    0.000  0.000  2.271
 15 -0.000 -0.000  1.470    0.000 -0.000  2.270
 16 -0.000  0.000  1.471   -0.000  0.000  2.271
 17  0.000 -0.000  1.470    0.000  0.000  2.270
 18  0.000 -0.000  1.470    0.000  0.000  2.270
 19  0.000  0.000  1.469   -0.000  0.000  2.269
 20  0.000 -0.000  1.470    0.001  0.000  2.270
 21  0.000  0.000  1.468   -0.000  0.000  2.267
 22  0.000  0.000  1.470    0.000  0.000  2.271
 23  0.000 -0.000  1.469    0.000 -0.000  2.268
 24 -0.000 -0.000  1.471   -0.001 -0.000  2.271
 25 -0.000  0.000  1.468   -0.000  0.000  2.267
[...]
 47 -0.000 -0.000  1.471   -0.000 -0.000  2.272
 48 -0.000 -0.000  1.471   -0.000 -0.000  2.272
 49 -0.000  0.000  1.471   -0.000  0.000  2.272
 50 -0.000  0.000  1.471   -0.000  0.000  2.272
 51  0.000  0.000  1.471    0.000  0.000  2.272
 52  0.000 -0.000  1.471    0.000 -0.000  2.272
 53  0.000 -0.000  1.471    0.000 -0.000  2.272
 54 -0.000 -0.000  1.471   -0.000 -0.000  2.272
DAV: 294    -0.444656050662E+03    0.11831E-04   -0.79908E-04 27216   0.726E-02    0.100E-02

 E_p =  0.24149E-09  lambda =  0.100E+02
<lVp>=  0.48298E-09
 DBL = -0.24149E-09
 ion        MW_int                 M_int
  1 -0.000 -0.000  1.471   -0.000 -0.000  2.272
  2 -0.000 -0.000  1.471   -0.000 -0.000  2.272
  3 -0.000 -0.000  1.471   -0.000 -0.000  2.272
  4 -0.000 -0.000  1.471   -0.000 -0.000  2.272
  5 -0.000  0.000  1.471   -0.000  0.000  2.272
  6  0.000  0.000  1.471    0.000  0.000  2.272
  7 -0.000  0.000  1.471   -0.000  0.000  2.272
  8  0.000  0.000  1.471    0.000  0.000  2.272
  9 -0.000  0.000  1.471   -0.000  0.000  2.272
 10 -0.000 -0.000  1.471   -0.000 -0.000  2.272
 11  0.000 -0.000  1.471    0.000  0.000  2.272
 12 -0.000  0.000  1.471   -0.000  0.000  2.272
 13 -0.000 -0.000  1.471   -0.000 -0.000  2.272
 14 -0.000  0.000  1.471   -0.000  0.000  2.272
 15 -0.000 -0.000  1.471    0.000 -0.000  2.272
 16 -0.000 -0.000  1.471   -0.000 -0.000  2.272
 17 -0.000 -0.000  1.471   -0.000 -0.000  2.272
 18 -0.000 -0.000  1.471   -0.000  0.000  2.272
 19  0.000  0.000  1.471    0.000  0.000  2.272
 20 -0.000  0.000  1.471   -0.000  0.000  2.272
 21 -0.000 -0.000  1.471   -0.000 -0.000  2.272
 22 -0.000  0.000  1.471   -0.000  0.000  2.272
 23  0.000 -0.000  1.471    0.000 -0.000  2.272
 24 -0.000  0.000  1.471    0.000 -0.000  2.272
 25  0.000 -0.000  1.471    0.000 -0.000  2.272
 26 -0.000 -0.000  1.471   -0.000 -0.000  2.272
 27 -0.000 -0.000  1.471    0.000 -0.000  2.272
 28 -0.000 -0.000  1.471   -0.000 -0.000  2.272
 29 -0.000 -0.000  1.471   -0.000 -0.000  2.272
 30 -0.000 -0.000  1.471   -0.000 -0.000  2.272
 31 -0.000 -0.000  1.471    0.000 -0.000  2.272
 32  0.000  0.000  1.471    0.000 -0.000  2.272
 33 -0.000 -0.000  1.471   -0.000 -0.000  2.272
 34 -0.000 -0.000  1.471   -0.000  0.000  2.272
 35  0.000  0.000  1.471   -0.000  0.000  2.272
 36 -0.000 -0.000  1.471   -0.000 -0.000  2.272
 37 -0.000 -0.000  1.471   -0.000 -0.000  2.272
 38  0.000  0.000  1.471    0.000  0.000  2.272
 39 -0.000 -0.000  1.471   -0.000 -0.000  2.272
 40  0.000  0.000  1.471    0.000 -0.000  2.272
 41 -0.000  0.000  1.471   -0.000  0.000  2.272
 42 -0.000 -0.000  1.471   -0.000 -0.000  2.272
 43 -0.000  0.000  1.471    0.000  0.000  2.272
 44  0.000  0.000  1.471    0.000  0.000  2.272
 45 -0.000 -0.000  1.471   -0.000 -0.000  2.272
 46 -0.000 -0.000  1.471   -0.000 -0.000  2.272
 47 -0.000 -0.000  1.471   -0.000 -0.000  2.272
 48 -0.000 -0.000  1.471    0.000 -0.000  2.272
 49 -0.000  0.000  1.471   -0.000  0.000  2.272
 50  0.000 -0.000  1.471   -0.000 -0.000  2.272
 51  0.000  0.000  1.471    0.000 -0.000  2.272
 52  0.000 -0.000  1.471    0.000 -0.000  2.272
 53  0.000 -0.000  1.471    0.000 -0.000  2.272
 54 -0.000 -0.000  1.471   -0.000 -0.000  2.272
DAV: 295    -0.444656081897E+03   -0.31235E-04   -0.75299E-04 27216   0.708E-02    0.101E-02

 E_p =  0.10120E-09  lambda =  0.100E+02
<lVp>=  0.20240E-09
 DBL = -0.10120E-09
 ion        MW_int                 M_int
  1 -0.000  0.000  1.471   -0.000  0.000  2.272
  2 -0.000 -0.000  1.471    0.000 -0.000  2.272
  3  0.000 -0.000  1.471    0.000  0.000  2.272
  4  0.000 -0.000  1.471    0.000 -0.000  2.272
  5 -0.000 -0.000  1.471   -0.000 -0.000  2.272
  6 -0.000  0.000  1.471   -0.000  0.000  2.272
  7  0.000 -0.000  1.471    0.000 -0.000  2.272
  8  0.000  0.000  1.471    0.000  0.000  2.272
  9 -0.000  0.000  1.471   -0.000  0.000  2.272
 10 -0.000 -0.000  1.471   -0.000  0.000  2.272
 11  0.000 -0.000  1.471   -0.000  0.000  2.272
 12 -0.000 -0.000  1.471    0.000  0.000  2.272
 13 -0.000 -0.000  1.471   -0.000 -0.000  2.272
 14  0.000  0.000  1.471    0.000  0.000  2.272
 15  0.000 -0.000  1.471    0.000 -0.000  2.272
 16 -0.000 -0.000  1.471   -0.000 -0.000  2.272
 17 -0.000  0.000  1.471    0.000  0.000  2.272
 18  0.000 -0.000  1.471   -0.000 -0.000  2.272
 19  0.000 -0.000  1.471    0.000  0.000  2.272
 20  0.000  0.000  1.471    0.000  0.000  2.272
 21 -0.000  0.000  1.471   -0.000  0.000  2.272
 22 -0.000 -0.000  1.471   -0.000  0.000  2.272
 23  0.000 -0.000  1.471    0.000  0.000  2.272
 24  0.000 -0.000  1.471    0.000 -0.000  2.272
 25 -0.000 -0.000  1.471   -0.000 -0.000  2.272
 26 -0.000 -0.000  1.471   -0.000 -0.000  2.272
 27 -0.000  0.000  1.471    0.000  0.000  2.272
 28 -0.000 -0.000  1.471   -0.000 -0.000  2.272
 29  0.000 -0.000  1.471    0.000 -0.000  2.272
 30 -0.000 -0.000  1.471    0.000 -0.000  2.272
 31  0.000  0.000  1.471    0.000  0.000  2.272
 32 -0.000  0.000  1.471   -0.000 -0.000  2.272
 33 -0.000 -0.000  1.471   -0.000  0.000  2.272
 34  0.000 -0.000  1.471    0.000 -0.000  2.272
 35 -0.000 -0.000  1.471   -0.000 -0.000  2.272
 36 -0.000  0.000  1.471   -0.000  0.000  2.272
 37 -0.000  0.000  1.471   -0.000 -0.000  2.272
 38  0.000 -0.000  1.471    0.000  0.000  2.272
 39 -0.000  0.000  1.471   -0.000  0.000  2.272
 40  0.000 -0.000  1.471    0.000 -0.000  2.272
 41 -0.000 -0.000  1.471    0.000 -0.000  2.272
 42  0.000  0.000  1.471   -0.000  0.000  2.272
 43 -0.000  0.000  1.471   -0.000  0.000  2.272
 44  0.000 -0.000  1.471    0.000 -0.000  2.272
 45 -0.000 -0.000  1.471   -0.000  0.000  2.272
 46  0.000  0.000  1.471    0.000  0.000  2.272
 47 -0.000  0.000  1.471   -0.000  0.000  2.272
 48  0.000 -0.000  1.471    0.000 -0.000  2.272
 49  0.000 -0.000  1.471    0.000 -0.000  2.272
 50  0.000  0.000  1.471   -0.000 -0.000  2.272
 51  0.000 -0.000  1.471    0.000 -0.000  2.272
 52  0.000  0.000  1.471    0.000  0.000  2.272
 53  0.000 -0.000  1.471   -0.000 -0.000  2.272
 54  0.000 -0.000  1.471    0.000 -0.000  2.272
DAV: 296    -0.444656037448E+03    0.44449E-04   -0.92229E-04 27216   0.765E-02    0.133E-02

 E_p =  0.90647E-10  lambda =  0.100E+02
<lVp>=  0.18129E-09
 DBL = -0.90647E-10
 ion        MW_int                 M_int
  1 -0.000  0.000  1.471   -0.000  0.000  2.272
  2 -0.000 -0.000  1.471   -0.000 -0.000  2.272
  3 -0.000 -0.000  1.471   -0.000  0.000  2.272
  4 -0.000 -0.000  1.471   -0.000 -0.000  2.272
  5 -0.000  0.000  1.471    0.000  0.000  2.272
  6  0.000  0.000  1.471    0.000 -0.000  2.272
  7  0.000 -0.000  1.471    0.000 -0.000  2.272
  8 -0.000  0.000  1.471   -0.000  0.000  2.272
  9 -0.000  0.000  1.471   -0.000  0.000  2.272
 10 -0.000  0.000  1.471   -0.000  0.000  2.272
 11  0.000  0.000  1.471    0.000  0.000  2.272
 12  0.000  0.000  1.471    0.000  0.000  2.272
 13  0.000 -0.000  1.471    0.000 -0.000  2.272
 14 -0.000 -0.000  1.471   -0.000 -0.000  2.272
 15  0.000 -0.000  1.471    0.000 -0.000  2.272
 16 -0.000 -0.000  1.471    0.000 -0.000  2.272
 17 -0.000 -0.000  1.471    0.000 -0.000  2.272
 18  0.000  0.000  1.471   -0.000  0.000  2.272
 19 -0.000 -0.000  1.471   -0.000 -0.000  2.272
 20  0.000  0.000  1.471    0.000  0.000  2.272
 21 -0.000  0.000  1.471    0.000  0.000  2.272
 22 -0.000  0.000  1.471   -0.000  0.000  2.272
 23  0.000 -0.000  1.471    0.000 -0.000  2.272
 24  0.000  0.000  1.471    0.000  0.000  2.272
 25  0.000  0.000  1.471    0.000  0.000  2.272
 26 -0.000 -0.000  1.471   -0.000 -0.000  2.272
 27  0.000 -0.000  1.471    0.000 -0.000  2.272
 28  0.000  0.000  1.471    0.000  0.000  2.272
 29 -0.000 -0.000  1.471   -0.000 -0.000  2.272
 30 -0.000 -0.000  1.471   -0.000 -0.000  2.272
 31  0.000 -0.000  1.471    0.000 -0.000  2.272
 32  0.000  0.000  1.471    0.000 -0.000  2.272
 33 -0.000 -0.000  1.471    0.000 -0.000  2.272
 34 -0.000  0.000  1.471   -0.000  0.000  2.272
 35  0.000  0.000  1.471    0.000  0.000  2.272
 36 -0.000 -0.000  1.471   -0.000  0.000  2.272
 37  0.000 -0.000  1.471    0.000  0.000  2.272
 38 -0.000 -0.000  1.471   -0.000  0.000  2.272
 39  0.000  0.000  1.471    0.000  0.000  2.272
 40  0.000 -0.000  1.471   -0.000 -0.000  2.272
 41 -0.000  0.000  1.471   -0.000  0.000  2.272
 42 -0.000  0.000  1.471   -0.000  0.000  2.272
 43 -0.000  0.000  1.471    0.000  0.000  2.272
 44  0.000 -0.000  1.471   -0.000  0.000  2.272
 45 -0.000 -0.000  1.471    0.000 -0.000  2.272
 46  0.000 -0.000  1.471    0.000 -0.000  2.272
 47 -0.000  0.000  1.471   -0.000 -0.000  2.272
 48  0.000 -0.000  1.471    0.000 -0.000  2.272
 49 -0.000  0.000  1.471    0.000  0.000  2.272
 50 -0.000  0.000  1.471   -0.000  0.000  2.272
 51  0.000 -0.000  1.471    0.000 -0.000  2.272
 52  0.000 -0.000  1.471    0.000 -0.000  2.272
 53  0.000 -0.000  1.471    0.000 -0.000  2.272
 54  0.000 -0.000  1.471    0.000  0.000  2.272
DAV: 297    -0.444656093218E+03   -0.55770E-04   -0.91223E-04 27216   0.755E-02    0.104E-02

 E_p =  0.95621E-10  lambda =  0.100E+02
<lVp>=  0.19124E-09
 DBL = -0.95621E-10
 ion        MW_int                 M_int
  1 -0.000  0.000  1.471   -0.000  0.000  2.272
  2 -0.000 -0.000  1.471   -0.000 -0.000  2.272
  3 -0.000  0.000  1.471   -0.000  0.000  2.272
  4  0.000 -0.000  1.471    0.000 -0.000  2.272
  5 -0.000  0.000  1.471    0.000  0.000  2.272
  6  0.000 -0.000  1.471    0.000 -0.000  2.272
  7 -0.000 -0.000  1.471    0.000 -0.000  2.272
  8  0.000  0.000  1.471   -0.000  0.000  2.272
  9 -0.000  0.000  1.471   -0.000  0.000  2.272
 10 -0.000  0.000  1.471   -0.000  0.000  2.272
 11  0.000  0.000  1.471    0.000 -0.000  2.272
 12  0.000  0.000  1.471    0.000  0.000  2.272
 13  0.000 -0.000  1.471   -0.000 -0.000  2.272
 14 -0.000 -0.000  1.471   -0.000 -0.000  2.272
 15  0.000 -0.000  1.471    0.000 -0.000  2.272
 16 -0.000 -0.000  1.471    0.000 -0.000  2.272
 17 -0.000 -0.000  1.471   -0.000 -0.000  2.272
 18  0.000 -0.000  1.471    0.000  0.000  2.272
 19 -0.000 -0.000  1.471   -0.000  0.000  2.272
 20 -0.000  0.000  1.471   -0.000 -0.000  2.272
 21 -0.000  0.000  1.471   -0.000  0.000  2.272
 22 -0.000  0.000  1.471   -0.000  0.000  2.272
 23  0.000 -0.000  1.471    0.000 -0.000  2.272
 24  0.000  0.000  1.471    0.000  0.000  2.272
 25  0.000 -0.000  1.471    0.000 -0.000  2.272
 26 -0.000 -0.000  1.471   -0.000 -0.000  2.272
 27 -0.000 -0.000  1.471   -0.000 -0.000  2.272
 28  0.000  0.000  1.471    0.000  0.000  2.272
 29  0.000 -0.000  1.471   -0.000 -0.000  2.272
 30 -0.000 -0.000  1.471    0.000 -0.000  2.272
 31  0.000  0.000  1.471    0.000  0.000  2.272
 32  0.000 -0.000  1.471    0.000 -0.000  2.272
 33 -0.000 -0.000  1.471   -0.000  0.000  2.272
 34  0.000 -0.000  1.471    0.000 -0.000  2.272
 35 -0.000  0.000  1.471   -0.000 -0.000  2.272
 36  0.000  0.000  1.471    0.000  0.000  2.272
 37  0.000  0.000  1.471    0.000  0.000  2.272
 38 -0.000 -0.000  1.471   -0.000 -0.000  2.272
 39 -0.000  0.000  1.471   -0.000  0.000  2.272
 40  0.000 -0.000  1.471    0.000 -0.000  2.272
 41 -0.000 -0.000  1.471   -0.000 -0.000  2.272
 42 -0.000  0.000  1.471   -0.000 -0.000  2.272
 43  0.000  0.000  1.471    0.000  0.000  2.272
 44 -0.000 -0.000  1.471   -0.000 -0.000  2.272
 45 -0.000 -0.000  1.471   -0.000 -0.000  2.272
 46 -0.000  0.000  1.471   -0.000  0.000  2.272
 47 -0.000  0.000  1.471   -0.000 -0.000  2.272
 48  0.000 -0.000  1.471    0.000 -0.000  2.272
 49  0.000  0.000  1.471    0.000  0.000  2.272
 50  0.000 -0.000  1.471    0.000 -0.000  2.272
 51  0.000 -0.000  1.471    0.000 -0.000  2.272
 52  0.000 -0.000  1.471    0.000 -0.000  2.272
 53  0.000 -0.000  1.471    0.000 -0.000  2.272
 54  0.000 -0.000  1.471    0.000 -0.000  2.272
DAV: 298    -0.444656091532E+03    0.16863E-05   -0.80077E-04 27216   0.721E-02    0.106E-02

 E_p =  0.15160E-09  lambda =  0.100E+02
<lVp>=  0.30320E-09
 DBL = -0.15160E-09
 ion        MW_int                 M_int
  1 -0.000  0.000  1.471   -0.000  0.000  2.272
  2 -0.000 -0.000  1.471   -0.000 -0.000  2.272
  3  0.000  0.000  1.471    0.000  0.000  2.272
  4  0.000 -0.000  1.471    0.000 -0.000  2.272
  5 -0.000  0.000  1.471    0.000  0.000  2.272
  6  0.000 -0.000  1.471    0.000 -0.000  2.272
  7 -0.000 -0.000  1.471   -0.000 -0.000  2.272
  8  0.000  0.000  1.471   -0.000  0.000  2.272
  9 -0.000  0.000  1.471   -0.000  0.000  2.272
 10 -0.000  0.000  1.471   -0.000  0.000  2.272
 11  0.000  0.000  1.471    0.000 -0.000  2.272
 12  0.000  0.000  1.471    0.000  0.000  2.272
 13 -0.000 -0.000  1.471   -0.000 -0.000  2.272
 14 -0.000 -0.000  1.471   -0.000 -0.000  2.272
 15  0.000 -0.000  1.471    0.000 -0.000  2.272
 16 -0.000 -0.000  1.471    0.000 -0.000  2.272
 17 -0.000 -0.000  1.471   -0.000 -0.000  2.272
 18  0.000 -0.000  1.471    0.000 -0.000  2.272
 19 -0.000  0.000  1.471   -0.000  0.000  2.272
 20  0.000  0.000  1.471   -0.000 -0.000  2.272
 21  0.000  0.000  1.471    0.000  0.000  2.272
 22 -0.000  0.000  1.471   -0.000  0.000  2.272
 23  0.000 -0.000  1.471   -0.000 -0.000  2.272
 24  0.000  0.000  1.471    0.000 -0.000  2.272
 25  0.000 -0.000  1.471    0.000 -0.000  2.272
 26 -0.000 -0.000  1.471   -0.000 -0.000  2.272
 27 -0.000 -0.000  1.471   -0.000 -0.000  2.272
 28  0.000  0.000  1.471    0.000  0.000  2.272
 29  0.000 -0.000  1.471    0.000 -0.000  2.272
 30 -0.000 -0.000  1.471   -0.000 -0.000  2.272
 31 -0.000  0.000  1.471   -0.000  0.000  2.272
 32  0.000 -0.000  1.471    0.000 -0.000  2.272
 33 -0.000  0.000  1.471   -0.000  0.000  2.272
 34  0.000 -0.000  1.471    0.000 -0.000  2.272
 35  0.000 -0.000  1.471   -0.000 -0.000  2.272
 36 -0.000  0.000  1.471   -0.000  0.000  2.272
 37  0.000  0.000  1.471    0.000  0.000  2.272
 38 -0.000 -0.000  1.471    0.000 -0.000  2.272
 39 -0.000  0.000  1.471   -0.000  0.000  2.272
 40  0.000 -0.000  1.471    0.000 -0.000  2.272
 41  0.000 -0.000  1.471    0.000 -0.000  2.272
 42 -0.000  0.000  1.471   -0.000  0.000  2.272
 43  0.000 -0.000  1.471    0.000 -0.000  2.272
 44 -0.000 -0.000  1.471   -0.000 -0.000  2.272
 45 -0.000 -0.000  1.471   -0.000 -0.000  2.272
 46 -0.000  0.000  1.471   -0.000  0.000  2.272
 47 -0.000 -0.000  1.471   -0.000 -0.000  2.272
 48  0.000  0.000  1.471    0.000  0.000  2.272
 49  0.000 -0.000  1.471    0.000 -0.000  2.272
 50  0.000 -0.000  1.471   -0.000 -0.000  2.272
 51  0.000 -0.000  1.471    0.000 -0.000  2.272
 52  0.000 -0.000  1.471    0.000 -0.000  2.272
 53  0.000 -0.000  1.471    0.000 -0.000  2.272
 54  0.000 -0.000  1.471    0.000 -0.000  2.272
DAV: 299    -0.444656074890E+03    0.16642E-04   -0.76358E-04 27216   0.711E-02    0.104E-02

 E_p =  0.18136E-09  lambda =  0.100E+02
<lVp>=  0.36271E-09
 DBL = -0.18136E-09
 ion        MW_int                 M_int
  1 -0.000  0.000  1.471   -0.000  0.000  2.272
  2 -0.000 -0.000  1.471   -0.000  0.000  2.272
  3  0.000  0.000  1.471    0.000  0.000  2.272
  4  0.000 -0.000  1.471    0.000 -0.000  2.272
  5 -0.000  0.000  1.471    0.000  0.000  2.272
  6  0.000 -0.000  1.471    0.000 -0.000  2.272
  7 -0.000 -0.000  1.471   -0.000 -0.000  2.272
  8  0.000  0.000  1.471    0.000  0.000  2.272
  9 -0.000  0.000  1.471   -0.000  0.000  2.272
 10 -0.000  0.000  1.471   -0.000  0.000  2.272
 11  0.000  0.000  1.471    0.000  0.000  2.272
 12  0.000  0.000  1.471    0.000  0.000  2.272
 13 -0.000 -0.000  1.471   -0.000 -0.000  2.272
 14 -0.000 -0.000  1.471   -0.000 -0.000  2.272
 15  0.000 -0.000  1.471    0.000 -0.000  2.272
 16 -0.000 -0.000  1.471    0.000  0.000  2.272
 17 -0.000 -0.000  1.471   -0.000 -0.000  2.272
 18 -0.000 -0.000  1.471   -0.000  0.000  2.272
 19 -0.000  0.000  1.471   -0.000  0.000  2.272
 20  0.000  0.000  1.471    0.000 -0.000  2.272
 21  0.000  0.000  1.471    0.000  0.000  2.272
 22 -0.000  0.000  1.471   -0.000  0.000  2.272
 23  0.000 -0.000  1.471   -0.000 -0.000  2.272
 24  0.000  0.000  1.471    0.000  0.000  2.272
 25  0.000 -0.000  1.471    0.000 -0.000  2.272
 26  0.000 -0.000  1.471    0.000 -0.000  2.272
 27 -0.000 -0.000  1.471   -0.000 -0.000  2.272
 28  0.000  0.000  1.471    0.000  0.000  2.272
 29  0.000 -0.000  1.471    0.000 -0.000  2.272
 30 -0.000 -0.000  1.471    0.000 -0.000  2.272
 31 -0.000  0.000  1.471   -0.000  0.000  2.272
 32  0.000 -0.000  1.471    0.000 -0.000  2.272
 33 -0.000  0.000  1.471   -0.000  0.000  2.272
 34 -0.000 -0.000  1.471   -0.000 -0.000  2.272
 35  0.000  0.000  1.471   -0.000  0.000  2.272
 36  0.000  0.000  1.471   -0.000  0.000  2.272
 37  0.000  0.000  1.471    0.000  0.000  2.272
 38 -0.000 -0.000  1.471   -0.000 -0.000  2.272
 39 -0.000  0.000  1.471    0.000  0.000  2.272
 40  0.000 -0.000  1.471    0.000 -0.000  2.272
 41  0.000 -0.000  1.471    0.000 -0.000  2.272
 42 -0.000  0.000  1.471   -0.000  0.000  2.272
 43  0.000 -0.000  1.471    0.000 -0.000  2.272
 44 -0.000 -0.000  1.471   -0.000 -0.000  2.272
 45  0.000 -0.000  1.471    0.000 -0.000  2.272
 46 -0.000  0.000  1.471   -0.000  0.000  2.272
 47 -0.000 -0.000  1.471   -0.000 -0.000  2.272
 48  0.000  0.000  1.471    0.000  0.000  2.272
 49  0.000 -0.000  1.471    0.000  0.000  2.272
 50  0.000 -0.000  1.471    0.000 -0.000  2.272
 51  0.000 -0.000  1.471    0.000 -0.000  2.272
 52  0.000 -0.000  1.471    0.000 -0.000  2.272
 53  0.000  0.000  1.471    0.000  0.000  2.272
 54  0.000 -0.000  1.471    0.000  0.000  2.272
DAV: 300    -0.444656082696E+03   -0.78055E-05   -0.64875E-04 27216   0.665E-02
   1 F= -.44465608E+03 E0= -.44463366E+03  d E =-.672600E-01  mag=     0.0000     0.0000   120.3126

 E_p =  0.18136E-09  lambda =  0.100E+02
 ion             lambda*MW_perp
  1  -0.71217E-05   0.53536E-05   0.00000E+00
  2  -0.21890E-06   0.14309E-05   0.00000E+00
  3   0.14364E-05  -0.29206E-06   0.00000E+00
  4  -0.32998E-05  -0.11734E-04   0.00000E+00
  5  -0.17938E-05   0.51455E-05   0.00000E+00
  6   0.23950E-05   0.64432E-06   0.00000E+00
  7   0.30600E-05  -0.62390E-05   0.00000E+00
  8  -0.29723E-05   0.34905E-05   0.00000E+00
  9  -0.49168E-05   0.40767E-05   0.00000E+00
 10  -0.10079E-04   0.17863E-05   0.00000E+00
 11  -0.17068E-05  -0.63973E-07   0.00000E+00
 12  -0.23570E-05  -0.50462E-05   0.00000E+00
 13  -0.11240E-04  -0.41401E-05   0.00000E+00
 14  -0.85286E-05  -0.11172E-05   0.00000E+00
 15   0.32107E-06  -0.24067E-05   0.00000E+00
 16  -0.35908E-05   0.20067E-05   0.00000E+00
 17  -0.17464E-05  -0.74640E-05   0.00000E+00
 18   0.37069E-05   0.41841E-05   0.00000E+00
 19  -0.59140E-05  -0.17471E-05   0.00000E+00
 20   0.35942E-05   0.47804E-06   0.00000E+00
 21  -0.34112E-05   0.16945E-05   0.00000E+00
 22  -0.31224E-05   0.10788E-04   0.00000E+00
 23  -0.57613E-05  -0.15730E-05   0.00000E+00
 24   0.49774E-05   0.11566E-05   0.00000E+00
 25   0.65051E-05  -0.83920E-05   0.00000E+00
 26  -0.64206E-05  -0.75251E-05   0.00000E+00
 27   0.11181E-04  -0.33173E-05   0.00000E+00
 28  -0.28037E-05  -0.61936E-05   0.00000E+00
 29   0.56384E-06  -0.87145E-05   0.00000E+00
 30  -0.21936E-05  -0.23830E-05   0.00000E+00
 31  -0.15495E-05   0.64776E-05   0.00000E+00
 32   0.74240E-05  -0.65292E-06   0.00000E+00
 33  -0.23693E-05  -0.59585E-05   0.00000E+00
 34   0.97582E-06  -0.21006E-05   0.00000E+00
 35   0.11067E-05  -0.71089E-05   0.00000E+00
 36   0.85363E-06  -0.11053E-05   0.00000E+00
 37   0.40166E-05  -0.20477E-05   0.00000E+00
 38   0.14837E-05  -0.95698E-06   0.00000E+00
 39   0.25534E-06   0.17182E-05   0.00000E+00
 40  -0.65805E-05   0.53525E-05   0.00000E+00
 41   0.70105E-05  -0.37456E-05   0.00000E+00
 42   0.26055E-05   0.17743E-06   0.00000E+00
 43   0.45446E-05   0.24388E-05   0.00000E+00
 44  -0.11456E-05   0.35635E-07   0.00000E+00
 45   0.30241E-05  -0.77874E-05   0.00000E+00
 46  -0.50391E-05  -0.44783E-06   0.00000E+00
 47   0.86085E-06   0.23137E-05   0.00000E+00
 48  -0.30727E-05   0.15275E-04   0.00000E+00
 49   0.46143E-05  -0.14304E-05   0.00000E+00
 50   0.49004E-06  -0.63450E-05   0.00000E+00
 51   0.69204E-05   0.46806E-05   0.00000E+00
 52  -0.25053E-05  -0.20111E-05   0.00000E+00
 53   0.10755E-05  -0.70742E-06   0.00000E+00
 54  -0.89679E-06   0.47097E-05   0.00000E+00
