 vasp.5.4.4.18Apr17-6-g9f103f2a35 (build Apr 11 2023 15:45:37) complex          
  
 executed on             LinuxIFC date 2023.04.13  02:30:11
 running on  112 total cores
 distrk:  each k-point on  112 cores,    1 groups
 distr:  one band on NCORES_PER_BAND=   4 cores,   28 groups


--------------------------------------------------------------------------------------------------------


 INCAR:
 POTCAR:    PAW_PBE Fe 06Sep2000                  

 ----------------------------------------------------------------------------- 
|                                                                             |
|           W    W    AA    RRRRR   N    N  II  N    N   GGGG   !!!           |
|           W    W   A  A   R    R  NN   N  II  NN   N  G    G  !!!           |
|           W    W  A    A  R    R  N N  N  II  N N  N  G       !!!           |
|           W WW W  AAAAAA  RRRRR   N  N N  II  N  N N  G  GGG   !            |
|           WW  WW  A    A  R   R   N   NN  II  N   NN  G    G                |
|           W    W  A    A  R    R  N    N  II  N    N   GGGG   !!!           |
|                                                                             |
|      For optimal performance we recommend to set                            |
|        NCORE= 4 - approx SQRT( number of cores)                             |
|      NCORE specifies how many cores store one orbital (NPAR=cpu/NCORE).     |
|      This setting can  greatly improve the performance of VASP for DFT.     |
|      The default,   NCORE=1            might be grossly inefficient         |
|      on modern multi-core architectures or massively parallel machines.     |
|      Do your own testing !!!!                                               |
|      Unfortunately you need to use the default for GW and RPA calculations. |
|      (for HF NCORE is supported but not extensively tested yet)             |
|                                                                             |
 ----------------------------------------------------------------------------- 

 POTCAR:    PAW_PBE Fe 06Sep2000                  
   VRHFIN =Fe:  d7 s1                                                           
   LEXCH  = PE                                                                  
   EATOM  =   594.3153 eV,   43.6809 Ry                                         
                                                                                
   TITEL  = PAW_PBE Fe 06Sep2000                                                
   LULTRA =        F    use ultrasoft PP ?                                      
   IUNSCR =        1    unscreen: 0-lin 1-nonlin 2-no                           
   RPACOR =    2.000    partial core radius                                     
   POMASS =   55.847; ZVAL   =    8.000    mass and valenz                      
   RCORE  =    2.300    outmost cutoff radius                                   
   RWIGS  =    2.460; RWIGS  =    1.302    wigner-seitz radius (au A)           
   ENMAX  =  267.882; ENMIN  =  200.911 eV                                      
   RCLOC  =    1.701    cutoff for local pot                                    
   LCOR   =        T    correct aug charges                                     
   LPAW   =        T    paw PP                                                  
   EAUG   =  511.368                                                            
   DEXC   =    0.000                                                            
   RMAX   =    2.356    core radius for proj-oper                               
   RAUG   =    1.300    factor for augmentation sphere                          
   RDEP   =    2.442    radius for radial grids                                 
   RDEPT  =    1.890    core radius for aug-charge                              
                                                                                
   Atomic configuration                                                         
    9 entries                                                                   
     n  l   j            E        occ.                                          
     1  0  0.50     -6993.8440   2.0000                                         
     2  0  0.50      -814.6047   2.0000                                         
     2  1  1.50      -693.3689   6.0000                                         
     3  0  0.50       -89.4732   2.0000                                         
     3  1  1.50       -55.6373   6.0000                                         
     3  2  2.50        -3.8151   7.0000                                         
     4  0  0.50        -4.2551   1.0000                                         
     4  1  1.50        -3.4015   0.0000                                         
     4  3  2.50        -1.3606   0.0000                                         
   Description                                                                  
     l       E           TYP  RCUT    TYP  RCUT                                 
     2     -3.8151135     23  2.300                                             
     2     -5.1756961     23  2.300                                             
     0     -4.2550963     23  2.300                                             
     0      7.2035603     23  2.300                                             
     1     -2.7211652     23  2.300                                             
     1     18.4316424     23  2.300                                             
  local pseudopotential read in
  partial core-charges read in
  partial kinetic energy density read in
  atomic valenz-charges read in
  non local Contribution for L=           2  read in
    real space projection operators read in
  non local Contribution for L=           2  read in
    real space projection operators read in
  non local Contribution for L=           0  read in
    real space projection operators read in
  non local Contribution for L=           0  read in
    real space projection operators read in
  non local Contribution for L=           1  read in
    real space projection operators read in
  non local Contribution for L=           1  read in
    real space projection operators read in
    PAW grid and wavefunctions read in
 
   number of l-projection  operators is LMAX  =           6
   number of lm-projection operators is LMMAX =          18
 

 ----------------------------------------------------------------------------- 
|                                                                             |
|  ADVICE TO THIS USER RUNNING 'VASP/VAMP'   (HEAR YOUR MASTER'S VOICE ...):  |
|                                                                             |
|      You have a (more or less) 'large supercell' and for larger cells       |
|      it might be more efficient to use real space projection opertators     |
|      So try LREAL= Auto  in the INCAR   file.                               |
|      Mind:          For very  accurate calculation you might also keep the  |
|      reciprocal projection scheme          (i.e. LREAL=.FALSE.)             |
|                                                                             |
 ----------------------------------------------------------------------------- 

  PAW_PBE Fe 06Sep2000                  :
 energy of atom  1       EATOM= -594.3153
 kinetic energy error for atom=    0.0205 (will be added to EATOM!!)
 
 
 POSCAR: Fetest                                  
  positions in direct lattice
  No initial velocities read in
 exchange correlation table for  LEXCH =        8
   RHO(1)=    0.500       N(1)  =     2000
   RHO(2)=  100.500       N(2)  =     4000
 


--------------------------------------------------------------------------------------------------------


 ion  position               nearest neighbor table
   1  0.000  0.000  0.000-   2 2.48  10 2.48  12 2.48  14 2.48  28 2.48  32 2.48  36 2.48  48 2.48
                             4 2.86   5 2.86   6 2.86   7 2.86   8 2.86   3 2.86
   2  0.167  0.167  0.167-  39 2.48  19 2.48  23 2.48  15 2.48   5 2.48   7 2.48   3 2.48   1 2.48
                            11 2.86  13 2.86   9 2.86  10 2.86  14 2.86  12 2.86
   3  0.000  0.000  0.333-   2 2.48  12 2.48  14 2.48  36 2.48  29 2.48  34 2.48   9 2.48  49 2.48
                            22 2.86   1 2.86  15 2.86  17 2.86  19 2.86   4 2.86
   4  0.000  0.000  0.667-  10 2.48  28 2.48  32 2.48  48 2.48   9 2.48  34 2.48  29 2.48  49 2.48
                            16 2.86  18 2.86  20 2.86  21 2.86   1 2.86   3 2.86
   5  0.333  0.000  0.000-   2 2.48  10 2.48  14 2.48  28 2.48  11 2.48  33 2.48  38 2.48  53 2.48
                            26 2.86   1 2.86  19 2.86  21 2.86  23 2.86   6 2.86
   6  0.667  0.000  0.000-  12 2.48  32 2.48  36 2.48  48 2.48  11 2.48  38 2.48  33 2.48  53 2.48
                            20 2.86  22 2.86  24 2.86  25 2.86   1 2.86   5 2.86
   7  0.000  0.333  0.000-   2 2.48  10 2.48  12 2.48  32 2.48  30 2.48  13 2.48  37 2.48  51 2.48
                            25 2.86   1 2.86  15 2.86  18 2.86  23 2.86   8 2.86
   8  0.000  0.667  0.000-  14 2.48  28 2.48  36 2.48  48 2.48  13 2.48  37 2.48  30 2.48  51 2.48
                            16 2.86  17 2.86  24 2.86  26 2.86   1 2.86   7 2.86
   9  0.167  0.167  0.500-  39 2.48  42 2.48  19 2.48  21 2.48  15 2.48  18 2.48   3 2.48   4 2.48
                            27 2.86  31 2.86   2 2.86  10 2.86  29 2.86  34 2.86
  10  0.167  0.167  0.833-  42 2.48  21 2.48  23 2.48  18 2.48   5 2.48   7 2.48   4 2.48   1 2.48
                            30 2.86  33 2.86   9 2.86  32 2.86  28 2.86   2 2.86
  11  0.500  0.167  0.167-  39 2.48  46 2.48  23 2.48  25 2.48  19 2.48  22 2.48   5 2.48   6 2.48
                            31 2.86  35 2.86   2 2.86  12 2.86  33 2.86  38 2.86
  12  0.833  0.167  0.167-  46 2.48  22 2.48  25 2.48  15 2.48   6 2.48   7 2.48   3 2.48   1 2.48
                            34 2.86  37 2.86  11 2.86  36 2.86  32 2.86   2 2.86
  13  0.167  0.500  0.167-  39 2.48  44 2.48  23 2.48  26 2.48  15 2.48  17 2.48   7 2.48   8 2.48
                            27 2.86  35 2.86   2 2.86  14 2.86  30 2.86  37 2.86
  14  0.167  0.833  0.167-  44 2.48  19 2.48  26 2.48  17 2.48   5 2.48   8 2.48   3 2.48   1 2.48
                            29 2.86  38 2.86  13 2.86  36 2.86  28 2.86   2 2.86
  15  0.000  0.333  0.333-   2 2.48  12 2.48   9 2.48  13 2.48  34 2.48  37 2.48  27 2.48  54 2.48
                             7 2.86  39 2.86  46 2.86   3 2.86  17 2.86  18 2.86
  16  0.000  0.667  0.667-  28 2.48  48 2.48  30 2.48  29 2.48  49 2.48  51 2.48  27 2.48  54 2.48
                             4 2.86   8 2.86  40 2.86  45 2.86  17 2.86  18 2.86
  17  0.000  0.667  0.333-  14 2.48  36 2.48  29 2.48  13 2.48  37 2.48  49 2.48  27 2.48  54 2.48
                            41 2.86  44 2.86   3 2.86   8 2.86  15 2.86  16 2.86
  18  0.000  0.333  0.667-  10 2.48  32 2.48  30 2.48   9 2.48  34 2.48  51 2.48  27 2.48  54 2.48
                            42 2.86  43 2.86   4 2.86   7 2.86  15 2.86  16 2.86
  19  0.333  0.000  0.333-   2 2.48  14 2.48  11 2.48   9 2.48  29 2.48  38 2.48  31 2.48  52 2.48
                             5 2.86  39 2.86  44 2.86   3 2.86  21 2.86  22 2.86
  20  0.667  0.000  0.667-  32 2.48  48 2.48  34 2.48  33 2.48  49 2.48  53 2.48  52 2.48  31 2.48
                             4 2.86   6 2.86  40 2.86  43 2.86  21 2.86  22 2.86
  21  0.333  0.000  0.667-  10 2.48  28 2.48   9 2.48  29 2.48  33 2.48  53 2.48  52 2.48  31 2.48
                            42 2.86  45 2.86   4 2.86   5 2.86  19 2.86  20 2.86
  22  0.667  0.000  0.333-  12 2.48  36 2.48  34 2.48  11 2.48  38 2.48  49 2.48  31 2.48  52 2.48
                            41 2.86  46 2.86   3 2.86   6 2.86  19 2.86  20 2.86
  23  0.333  0.333  0.000-   2 2.48  10 2.48  11 2.48  13 2.48  30 2.48  33 2.48  35 2.48  50 2.48
                             7 2.86  39 2.86  42 2.86   5 2.86  25 2.86  26 2.86
  24  0.667  0.667  0.000-  36 2.48  48 2.48  38 2.48  37 2.48  51 2.48  53 2.48  35 2.48  50 2.48
                             6 2.86   8 2.86  40 2.86  41 2.86  25 2.86  26 2.86
  25  0.667  0.333  0.000-  12 2.48  32 2.48  11 2.48  33 2.48  37 2.48  51 2.48  50 2.48  35 2.48
                            43 2.86  46 2.86   6 2.86   7 2.86  23 2.86  24 2.86
  26  0.333  0.667  0.000-  14 2.48  28 2.48  13 2.48  30 2.48  38 2.48  53 2.48  50 2.48  35 2.48
                            44 2.86  45 2.86   5 2.86   8 2.86  23 2.86  24 2.86
  27  0.167  0.500  0.500-  39 2.48  42 2.48  44 2.48  45 2.48  15 2.48  16 2.48  17 2.48  18 2.48
                             9 2.86  13 2.86  29 2.86  30 2.86  47 2.86  54 2.86
  28  0.167  0.833  0.833-  45 2.48  21 2.48  26 2.48  16 2.48   5 2.48   8 2.48   4 2.48   1 2.48
                            30 2.86  29 2.86  53 2.86  14 2.86  48 2.86  10 2.86
  29  0.167  0.833  0.500-  44 2.48  45 2.48  19 2.48  21 2.48  16 2.48  17 2.48   3 2.48   4 2.48
                            28 2.86  14 2.86  27 2.86  52 2.86  49 2.86   9 2.86
  30  0.167  0.500  0.833-  42 2.48  45 2.48  23 2.48  26 2.48  16 2.48  18 2.48   7 2.48   8 2.48
                            28 2.86  10 2.86  27 2.86  50 2.86  13 2.86  51 2.86
  31  0.500  0.167  0.500-  39 2.48  42 2.48  43 2.48  46 2.48  19 2.48  20 2.48  21 2.48  22 2.48
                             9 2.86  11 2.86  33 2.86  34 2.86  47 2.86  52 2.86
  32  0.833  0.167  0.833-  43 2.48  20 2.48  25 2.48  18 2.48   6 2.48   7 2.48   4 2.48   1 2.48
                            34 2.86  33 2.86  51 2.86  12 2.86  48 2.86  10 2.86
  33  0.500  0.167  0.833-  42 2.48  43 2.48  23 2.48  25 2.48  20 2.48  21 2.48   5 2.48   6 2.48
                            32 2.86  10 2.86  31 2.86  50 2.86  11 2.86  53 2.86
  34  0.833  0.167  0.500-  43 2.48  46 2.48  20 2.48  22 2.48  15 2.48  18 2.48   3 2.48   4 2.48
                            32 2.86  12 2.86  31 2.86  54 2.86  49 2.86   9 2.86
  35  0.500  0.500  0.167-  39 2.48  41 2.48  44 2.48  46 2.48  23 2.48  24 2.48  25 2.48  26 2.48
                            11 2.86  13 2.86  37 2.86  38 2.86  47 2.86  50 2.86
  36  0.833  0.833  0.167-  41 2.48  22 2.48  24 2.48  17 2.48   6 2.48   8 2.48   3 2.48   1 2.48
                            38 2.86  37 2.86  49 2.86  14 2.86  48 2.86  12 2.86
  37  0.833  0.500  0.167-  41 2.48  46 2.48  24 2.48  25 2.48  15 2.48  17 2.48   7 2.48   8 2.48
                            36 2.86  12 2.86  35 2.86  54 2.86  51 2.86  13 2.86
  38  0.500  0.833  0.167-  41 2.48  44 2.48  24 2.48  26 2.48  19 2.48  22 2.48   5 2.48   6 2.48
                            36 2.86  14 2.86  35 2.86  52 2.86  11 2.86  53 2.86
  39  0.333  0.333  0.333-   2 2.48   9 2.48  11 2.48  13 2.48  27 2.48  31 2.48  35 2.48  47 2.48
                            19 2.86  23 2.86  15 2.86  44 2.86  46 2.86  42 2.86
  40  0.667  0.667  0.667-  48 2.48  49 2.48  51 2.48  53 2.48  52 2.48  50 2.48  54 2.48  47 2.48
                            24 2.86  16 2.86  20 2.86  45 2.86  41 2.86  43 2.86
  41  0.667  0.667  0.333-  36 2.48  37 2.48  38 2.48  49 2.48  35 2.48  52 2.48  54 2.48  47 2.48
                            24 2.86  17 2.86  22 2.86  44 2.86  46 2.86  40 2.86
  42  0.333  0.333  0.667-  10 2.48   9 2.48  30 2.48  33 2.48  31 2.48  27 2.48  50 2.48  47 2.48
                            18 2.86  21 2.86  23 2.86  45 2.86  39 2.86  43 2.86
  43  0.667  0.333  0.667-  32 2.48  33 2.48  34 2.48  51 2.48  50 2.48  31 2.48  54 2.48  47 2.48
                            25 2.86  18 2.86  20 2.86  42 2.86  46 2.86  40 2.86
  44  0.333  0.667  0.333-  14 2.48  13 2.48  29 2.48  38 2.48  35 2.48  27 2.48  52 2.48  47 2.48
                            17 2.86  19 2.86  26 2.86  45 2.86  39 2.86  41 2.86
  45  0.333  0.667  0.667-  28 2.48  29 2.48  30 2.48  53 2.48  50 2.48  52 2.48  27 2.48  47 2.48
                            26 2.86  16 2.86  21 2.86  42 2.86  44 2.86  40 2.86
  46  0.667  0.333  0.333-  12 2.48  11 2.48  34 2.48  37 2.48  35 2.48  31 2.48  54 2.48  47 2.48
                            15 2.86  22 2.86  25 2.86  43 2.86  39 2.86  41 2.86
  47  0.500  0.500  0.500-  39 2.48  40 2.48  41 2.48  42 2.48  43 2.48  44 2.48  45 2.48  46 2.48
                            35 2.86  27 2.86  31 2.86  50 2.86  52 2.86  54 2.86
  48  0.833  0.833  0.833-  40 2.48  20 2.48  24 2.48  16 2.48   6 2.48   8 2.48   4 2.48   1 2.48
                            49 2.86  51 2.86  53 2.86  32 2.86  36 2.86  28 2.86
  49  0.833  0.833  0.500-  40 2.48  41 2.48  20 2.48  22 2.48  16 2.48  17 2.48   3 2.48   4 2.48
                            36 2.86  48 2.86  52 2.86  54 2.86  29 2.86  34 2.86
  50  0.500  0.500  0.833-  40 2.48  42 2.48  43 2.48  45 2.48  23 2.48  24 2.48  25 2.48  26 2.48
                            30 2.86  33 2.86  47 2.86  51 2.86  53 2.86  35 2.86
  51  0.833  0.500  0.833-  40 2.48  43 2.48  24 2.48  25 2.48  16 2.48  18 2.48   7 2.48   8 2.48
                            32 2.86  48 2.86  50 2.86  54 2.86  37 2.86  30 2.86
  52  0.500  0.833  0.500-  40 2.48  41 2.48  44 2.48  45 2.48  19 2.48  20 2.48  21 2.48  22 2.48
                            29 2.86  38 2.86  47 2.86  49 2.86  53 2.86  31 2.86
  53  0.500  0.833  0.833-  40 2.48  45 2.48  24 2.48  26 2.48  20 2.48  21 2.48   5 2.48   6 2.48
                            28 2.86  48 2.86  50 2.86  52 2.86  38 2.86  33 2.86
  54  0.833  0.500  0.500-  40 2.48  41 2.48  43 2.48  46 2.48  15 2.48  16 2.48  17 2.48  18 2.48
                            34 2.86  37 2.86  47 2.86  49 2.86  51 2.86  27 2.86
 

IMPORTANT INFORMATION: All symmetrisations will be switched off!
NOSYMM: (Re-)initialisation of all symmetry stuff for point group C_1.

 
 
 KPOINTS: Fetest                                  

Automatic generation of k-mesh.
Space group operators:
 irot       det(A)        alpha          n_x          n_y          n_z        tau_x        tau_y        tau_z
    1     1.000000     0.000000     1.000000     0.000000     0.000000     0.000000     0.000000     0.000000
 
 Subroutine IBZKPT returns following result:
 ===========================================
 
 Found     27 irreducible k-points:
 
 Following reciprocal coordinates:
            Coordinates               Weight
  0.000000  0.000000  0.000000      1.000000
  0.333333  0.000000  0.000000      1.000000
 -0.333333  0.000000  0.000000      1.000000
  0.000000  0.333333  0.000000      1.000000
  0.333333  0.333333  0.000000      1.000000
 -0.333333  0.333333  0.000000      1.000000
  0.000000 -0.333333  0.000000      1.000000
  0.333333 -0.333333  0.000000      1.000000
 -0.333333 -0.333333  0.000000      1.000000
  0.000000  0.000000  0.333333      1.000000
  0.333333  0.000000  0.333333      1.000000
 -0.333333  0.000000  0.333333      1.000000
  0.000000  0.333333  0.333333      1.000000
  0.333333  0.333333  0.333333      1.000000
 -0.333333  0.333333  0.333333      1.000000
  0.000000 -0.333333  0.333333      1.000000
  0.333333 -0.333333  0.333333      1.000000
 -0.333333 -0.333333  0.333333      1.000000
  0.000000  0.000000 -0.333333      1.000000
  0.333333  0.000000 -0.333333      1.000000
 -0.333333  0.000000 -0.333333      1.000000
  0.000000  0.333333 -0.333333      1.000000
  0.333333  0.333333 -0.333333      1.000000
 -0.333333  0.333333 -0.333333      1.000000
  0.000000 -0.333333 -0.333333      1.000000
  0.333333 -0.333333 -0.333333      1.000000
 -0.333333 -0.333333 -0.333333      1.000000
 
 Following cartesian coordinates:
            Coordinates               Weight
  0.000000  0.000000  0.000000      1.000000
  0.111111  0.000000  0.000000      1.000000
 -0.111111  0.000000  0.000000      1.000000
  0.000000  0.111111  0.000000      1.000000
  0.111111  0.111111  0.000000      1.000000
 -0.111111  0.111111  0.000000      1.000000
  0.000000 -0.111111  0.000000      1.000000
  0.111111 -0.111111  0.000000      1.000000
 -0.111111 -0.111111  0.000000      1.000000
  0.000000  0.000000  0.111111      1.000000
  0.111111  0.000000  0.111111      1.000000
 -0.111111  0.000000  0.111111      1.000000
  0.000000  0.111111  0.111111      1.000000
  0.111111  0.111111  0.111111      1.000000
 -0.111111  0.111111  0.111111      1.000000
  0.000000 -0.111111  0.111111      1.000000
  0.111111 -0.111111  0.111111      1.000000
 -0.111111 -0.111111  0.111111      1.000000
  0.000000  0.000000 -0.111111      1.000000
  0.111111  0.000000 -0.111111      1.000000
 -0.111111  0.000000 -0.111111      1.000000
  0.000000  0.111111 -0.111111      1.000000
  0.111111  0.111111 -0.111111      1.000000
 -0.111111  0.111111 -0.111111      1.000000
  0.000000 -0.111111 -0.111111      1.000000
  0.111111 -0.111111 -0.111111      1.000000
 -0.111111 -0.111111 -0.111111      1.000000
 

 ----------------------------------------------------------------------------- 
|                                                                             |
|           W    W    AA    RRRRR   N    N  II  N    N   GGGG   !!!           |
|           W    W   A  A   R    R  NN   N  II  NN   N  G    G  !!!           |
|           W    W  A    A  R    R  N N  N  II  N N  N  G       !!!           |
|           W WW W  AAAAAA  RRRRR   N  N N  II  N  N N  G  GGG   !            |
|           WW  WW  A    A  R   R   N   NN  II  N   NN  G    G                |
|           W    W  A    A  R    R  N    N  II  N    N   GGGG   !!!           |
|                                                                             |
|      The number of bands has been changed from the values supplied          |
|      in the INCAR file. This is a result of running the parallel version.   |
|      The orbitals not found in the WAVECAR file will be initialized with    |
|      random numbers, which is usually adequate. For correlated              |
|      calculations, however, you should redo the groundstate calculation.    |
|      I found NBANDS    =      500  now  NBANDS  =     504                   |
|                                                                             |
 ----------------------------------------------------------------------------- 



--------------------------------------------------------------------------------------------------------




 Dimension of arrays:
   k-points           NKPTS =     27   k-points in BZ     NKDIM =     27   number of bands    NBANDS=    504
   number of dos      NEDOS =    301   number of ions     NIONS =     54
   non local maximal  LDIM  =      6   non local SUM 2l+1 LMDIM =     18
   total plane-waves  NPLWV = 157464
   max r-space proj   IRMAX =      1   max aug-charges    IRDMAX=   9079
   dimension x,y,z NGX =    54 NGY =   54 NGZ =   54
   dimension x,y,z NGXF=   108 NGYF=  108 NGZF=  108
   support grid    NGXF=   108 NGYF=  108 NGZF=  108
   ions per type =              54
   NGX,Y,Z   is equivalent  to a cutoff of  10.46, 10.46, 10.46 a.u.
   NGXF,Y,Z  is equivalent  to a cutoff of  20.93, 20.93, 20.93 a.u.

 SYSTEM =  unknown system                          
 POSCAR =  Fetest                                  

 Startparameter for this run:
   NWRITE =      2    write-flag & timer
   PREC   = accura    normal or accurate (medium, high low for compatibility)
   ISTART =      0    job   : 0-new  1-cont  2-samecut
   ICHARG =      2    charge: 1-file 2-atom 10-const
   ISPIN  =      1    spin polarized calculation?
   LNONCOLLINEAR =      T non collinear calculations
   LSORBIT =      F    spin-orbit coupling
   INIWAV =      1    electr: 0-lowe 1-rand  2-diag
   LASPH  =      F    aspherical Exc in radial PAW
   METAGGA=      F    non-selfconsistent MetaGGA calc.

 Electronic Relaxation 1
   ENCUT  =  350.0 eV  25.72 Ry    5.07 a.u.  13.09 13.09 13.09*2*pi/ulx,y,z
   ENINI  =  350.0     initial cutoff
   ENAUG  =  511.4 eV  augmentation charge cutoff
   NELM   =    300;   NELMIN=  2; NELMDL= -5     # of ELM steps 
   EDIFF  = 0.1E-06   stopping-criterion for ELM
   LREAL  =      F    real-space projection
   NLSPLINE    = F    spline interpolate recip. space projectors
   LCOMPAT=      F    compatible to vasp.4.4
   GGA_COMPAT  = T    GGA compatible to vasp.4.4-vasp.4.6
   LMAXPAW     = -100 max onsite density
   LMAXMIX     =    2 max onsite mixed and CHGCAR
   VOSKOWN=      0    Vosko Wilk Nusair interpolation
   ROPT   =    0.00000
 Ionic relaxation
   EDIFFG = 0.1E-05   stopping-criterion for IOM
   NSW    =      0    number of steps for IOM
   NBLOCK =      1;   KBLOCK =      1    inner block; outer block 
   IBRION =     -1    ionic relax: 0-MD 1-quasi-New 2-CG
   NFREE  =      0    steps in history (QN), initial steepest desc. (CG)
   ISIF   =      2    stress and relaxation
   IWAVPR =     10    prediction:  0-non 1-charg 2-wave 3-comb
   ISYM   =      0    0-nonsym 1-usesym 2-fastsym
   LCORR  =      T    Harris-Foulkes like correction to forces

   POTIM  = 0.1000    time-step for ionic-motion
   TEIN   =    0.0    initial temperature
   TEBEG  =    0.0;   TEEND  =   0.0 temperature during run
   SMASS  =  -3.00    Nose mass-parameter (am)
   estimated Nose-frequenzy (Omega)   =  0.10E-29 period in steps =****** mass=  -0.168E-26a.u.
   SCALEE = 1.0000    scale energy and forces
   NPACO  =    256;   APACO  = 16.0  distance and # of slots for P.C.
   PSTRESS=    0.0 pullay stress

  Mass of Ions in am
   POMASS =  55.85
  Ionic Valenz
   ZVAL   =   8.00
  Atomic Wigner-Seitz radii
   RWIGS  =   1.10
  virtual crystal weights 
   VCA    =   1.00
   NELECT =     432.0000    total number of electrons
   NUPDOWN=      -1.0000    fix difference up-down

 DOS related values:
   EMIN   =  10.00;   EMAX   =-10.00  energy-range for DOS
   EFERMI =   0.00
   ISMEAR =     1;   SIGMA  =   0.20  broadening in eV -4-tet -1-fermi 0-gaus

 Electronic relaxation 2 (details)
   IALGO  =     38    algorithm
   LDIAG  =      T    sub-space diagonalisation (order eigenvalues)
   LSUBROT=      F    optimize rotation matrix (better conditioning)
   TURBO    =      0    0=normal 1=particle mesh
   IRESTART =      0    0=no restart 2=restart with 2 vectors
   NREBOOT  =      0    no. of reboots
   NMIN     =      0    reboot dimension
   EREF     =   0.00    reference energy to select bands
   IMIX   =      4    mixing-type and parameters
     AMIX     =   0.20;   BMIX     =  0.00
     AMIX_MAG =   0.80;   BMIX_MAG =  0.00
     AMIN     =   0.10
     WC   =   100.;   INIMIX=   1;  MIXPRE=   1;  MAXMIX= -45

 Intra band minimization:
   WEIMIN = 0.0000     energy-eigenvalue tresh-hold
   EBREAK =  0.50E-10  absolut break condition
   DEPER  =   0.30     relativ break condition  

   TIME   =   0.40     timestep for ELM

  volume/ion in A,a.u.               =      11.70        78.93
  Fermi-wavevector in a.u.,A,eV,Ry     =   1.442388  2.725718 28.306695  2.080483
  Thomas-Fermi vector in A             =   2.560914
 
 Write flags
   LWAVE        =      F    write WAVECAR
   LDOWNSAMPLE  =      F    k-point downsampling of WAVECAR
   LCHARG       =      T    write CHGCAR
   LVTOT        =      F    write LOCPOT, total local potential
   LVHAR        =      F    write LOCPOT, Hartree potential only
   LELF         =      F    write electronic localiz. function (ELF)
   LORBIT       =     10    0 simple, 1 ext, 2 COOP (PROOUT), +10 PAW based schemes


 Dipole corrections
   LMONO  =      F    monopole corrections only (constant potential shift)
   LDIPOL =      F    correct potential (dipole corrections)
   IDIPOL =      0    1-x, 2-y, 3-z, 4-all directions 
   EPSILON=  1.0000000 bulk dielectric constant

 Exchange correlation treatment:
   GGA     =    PE    GGA type
   LEXCH   =     8    internal setting for exchange type
   VOSKOWN=      0    Vosko Wilk Nusair interpolation
   LHFCALC =     F    Hartree Fock is set to
   LHFONE  =     F    Hartree Fock one center treatment
   AEXX    =    0.0000 exact exchange contribution

 Linear response parameters
   LEPSILON=     F    determine dielectric tensor
   LRPA    =     F    only Hartree local field effects (RPA)
   LNABLA  =     F    use nabla operator in PAW spheres
   LVEL    =     F    velocity operator in full k-point grid
   LINTERFAST=   F  fast interpolation
   KINTER  =     0    interpolate to denser k-point grid
   CSHIFT  =0.1000    complex shift for real part using Kramers Kronig
   OMEGAMAX=  -1.0    maximum frequency
   DEG_THRESHOLD= 0.2000000E-02 threshold for treating states as degnerate
   RTIME   =   -0.100 relaxation time in fs
  (WPLASMAI=    0.000 imaginary part of plasma frequency in eV, 0.658/RTIME)
   DFIELD  = 0.0000000 0.0000000 0.0000000 field for delta impulse in time
 
 Orbital magnetization related:
   ORBITALMAG=     F  switch on orbital magnetization
   LCHIMAG   =     F  perturbation theory with respect to B field
   DQ        =  0.001000  dq finite difference perturbation B field
   LLRAUG    =     F  two centre corrections for induced B field



--------------------------------------------------------------------------------------------------------


 Static calculation
 charge density and potential will be updated during run
 non collinear spin polarized calculation
 Variant of blocked Davidson
 Davidson routine will perform the subspace rotation
 perform sub-space diagonalisation
    after iterative eigenvector-optimisation
 modified Broyden-mixing scheme, WC =      100.0
 initial mixing is a Kerker type mixing with AMIX =  0.2000 and BMIX =      0.0000
 Hartree-type preconditioning will be used
 using additional bands          288
 reciprocal scheme for non local part
 use partial core corrections
 calculate Harris-corrections to forces 
   (improved forces if not selfconsistent)
 use gradient corrections 
 use of overlap-Matrix (Vanderbilt PP)
 Methfessel and Paxton  Order N= 1 SIGMA  =   0.20


--------------------------------------------------------------------------------------------------------


  energy-cutoff  :      350.00
  volume of cell :      631.63
      direct lattice vectors                 reciprocal lattice vectors
     8.580000000  0.000000000  0.000000000     0.116550117  0.000000000  0.000000000
     0.000000000  8.580000000  0.000000000     0.000000000  0.116550117  0.000000000
     0.000000000  0.000000000  8.580000000     0.000000000  0.000000000  0.116550117

  length of vectors
     8.580000000  8.580000000  8.580000000     0.116550117  0.116550117  0.116550117


 
 k-points in units of 2pi/SCALE and weight: Fetest                                  
   0.00000000  0.00000000  0.00000000       0.037
   0.11111111  0.00000000  0.00000000       0.037
  -0.11111111  0.00000000  0.00000000       0.037
   0.00000000  0.11111111  0.00000000       0.037
   0.11111111  0.11111111  0.00000000       0.037
  -0.11111111  0.11111111  0.00000000       0.037
   0.00000000 -0.11111111  0.00000000       0.037
   0.11111111 -0.11111111  0.00000000       0.037
  -0.11111111 -0.11111111  0.00000000       0.037
   0.00000000  0.00000000  0.11111111       0.037
   0.11111111  0.00000000  0.11111111       0.037
  -0.11111111  0.00000000  0.11111111       0.037
   0.00000000  0.11111111  0.11111111       0.037
   0.11111111  0.11111111  0.11111111       0.037
  -0.11111111  0.11111111  0.11111111       0.037
   0.00000000 -0.11111111  0.11111111       0.037
   0.11111111 -0.11111111  0.11111111       0.037
  -0.11111111 -0.11111111  0.11111111       0.037
   0.00000000  0.00000000 -0.11111111       0.037
   0.11111111  0.00000000 -0.11111111       0.037
  -0.11111111  0.00000000 -0.11111111       0.037
   0.00000000  0.11111111 -0.11111111       0.037
   0.11111111  0.11111111 -0.11111111       0.037
  -0.11111111  0.11111111 -0.11111111       0.037
   0.00000000 -0.11111111 -0.11111111       0.037
   0.11111111 -0.11111111 -0.11111111       0.037
  -0.11111111 -0.11111111 -0.11111111       0.037
 
 k-points in reciprocal lattice and weights: Fetest                                  
   0.00000000  0.00000000  0.00000000       0.037
   0.33333333  0.00000000  0.00000000       0.037
  -0.33333333  0.00000000  0.00000000       0.037
   0.00000000  0.33333333  0.00000000       0.037
   0.33333333  0.33333333  0.00000000       0.037
  -0.33333333  0.33333333  0.00000000       0.037
   0.00000000 -0.33333333  0.00000000       0.037
   0.33333333 -0.33333333  0.00000000       0.037
  -0.33333333 -0.33333333  0.00000000       0.037
   0.00000000  0.00000000  0.33333333       0.037
   0.33333333  0.00000000  0.33333333       0.037
  -0.33333333  0.00000000  0.33333333       0.037
   0.00000000  0.33333333  0.33333333       0.037
   0.33333333  0.33333333  0.33333333       0.037
  -0.33333333  0.33333333  0.33333333       0.037
   0.00000000 -0.33333333  0.33333333       0.037
   0.33333333 -0.33333333  0.33333333       0.037
  -0.33333333 -0.33333333  0.33333333       0.037
   0.00000000  0.00000000 -0.33333333       0.037
   0.33333333  0.00000000 -0.33333333       0.037
  -0.33333333  0.00000000 -0.33333333       0.037
   0.00000000  0.33333333 -0.33333333       0.037
   0.33333333  0.33333333 -0.33333333       0.037
  -0.33333333  0.33333333 -0.33333333       0.037
   0.00000000 -0.33333333 -0.33333333       0.037
   0.33333333 -0.33333333 -0.33333333       0.037
  -0.33333333 -0.33333333 -0.33333333       0.037
 
 position of ions in fractional coordinates (direct lattice) 
   0.00000000  0.00000000  0.00000000
   0.16666667  0.16666667  0.16666667
   0.00000000  0.00000000  0.33333333
   0.00000000  0.00000000  0.66666667
   0.33333333  0.00000000  0.00000000
   0.66666667  0.00000000  0.00000000
   0.00000000  0.33333333  0.00000000
   0.00000000  0.66666667  0.00000000
   0.16666667  0.16666667  0.50000000
   0.16666667  0.16666667  0.83333333
   0.50000000  0.16666667  0.16666667
   0.83333333  0.16666667  0.16666667
   0.16666667  0.50000000  0.16666667
   0.16666667  0.83333333  0.16666667
   0.00000000  0.33333333  0.33333333
   0.00000000  0.66666667  0.66666667
   0.00000000  0.66666667  0.33333333
   0.00000000  0.33333333  0.66666667
   0.33333333  0.00000000  0.33333333
   0.66666667  0.00000000  0.66666667
   0.33333333  0.00000000  0.66666667
   0.66666667  0.00000000  0.33333333
   0.33333333  0.33333333  0.00000000
   0.66666667  0.66666667  0.00000000
   0.66666667  0.33333333  0.00000000
   0.33333333  0.66666667  0.00000000
   0.16666667  0.50000000  0.50000000
   0.16666667  0.83333333  0.83333333
   0.16666667  0.83333333  0.50000000
   0.16666667  0.50000000  0.83333333
   0.50000000  0.16666667  0.50000000
   0.83333333  0.16666667  0.83333333
   0.50000000  0.16666667  0.83333333
   0.83333333  0.16666667  0.50000000
   0.50000000  0.50000000  0.16666667
   0.83333333  0.83333333  0.16666667
   0.83333333  0.50000000  0.16666667
   0.50000000  0.83333333  0.16666667
   0.33333333  0.33333333  0.33333333
   0.66666667  0.66666667  0.66666667
   0.66666667  0.66666667  0.33333333
   0.33333333  0.33333333  0.66666667
   0.66666667  0.33333333  0.66666667
   0.33333333  0.66666667  0.33333333
   0.33333333  0.66666667  0.66666667
   0.66666667  0.33333333  0.33333333
   0.50000000  0.50000000  0.50000000
   0.83333333  0.83333333  0.83333333
   0.83333333  0.83333333  0.50000000
   0.50000000  0.50000000  0.83333333
   0.83333333  0.50000000  0.83333333
   0.50000000  0.83333333  0.50000000
   0.50000000  0.83333333  0.83333333
   0.83333333  0.50000000  0.50000000
 
 position of ions in cartesian coordinates  (Angst):
   0.00000000  0.00000000  0.00000000
   1.43000000  1.43000000  1.43000000
   0.00000000  0.00000000  2.86000000
   0.00000000  0.00000000  5.72000000
   2.86000000  0.00000000  0.00000000
   5.72000000  0.00000000  0.00000000
   0.00000000  2.86000000  0.00000000
   0.00000000  5.72000000  0.00000000
   1.43000000  1.43000000  4.29000000
   1.43000000  1.43000000  7.15000000
   4.29000000  1.43000000  1.43000000
   7.15000000  1.43000000  1.43000000
   1.43000000  4.29000000  1.43000000
   1.43000000  7.15000000  1.43000000
   0.00000000  2.86000000  2.86000000
   0.00000000  5.72000000  5.72000000
   0.00000000  5.72000000  2.86000000
   0.00000000  2.86000000  5.72000000
   2.86000000  0.00000000  2.86000000
   5.72000000  0.00000000  5.72000000
   2.86000000  0.00000000  5.72000000
   5.72000000  0.00000000  2.86000000
   2.86000000  2.86000000  0.00000000
   5.72000000  5.72000000  0.00000000
   5.72000000  2.86000000  0.00000000
   2.86000000  5.72000000  0.00000000
   1.43000000  4.29000000  4.29000000
   1.43000000  7.15000000  7.15000000
   1.43000000  7.15000000  4.29000000
   1.43000000  4.29000000  7.15000000
   4.29000000  1.43000000  4.29000000
   7.15000000  1.43000000  7.15000000
   4.29000000  1.43000000  7.15000000
   7.15000000  1.43000000  4.29000000
   4.29000000  4.29000000  1.43000000
   7.15000000  7.15000000  1.43000000
   7.15000000  4.29000000  1.43000000
   4.29000000  7.15000000  1.43000000
   2.86000000  2.86000000  2.86000000
   5.72000000  5.72000000  5.72000000
   5.72000000  5.72000000  2.86000000
   2.86000000  2.86000000  5.72000000
   5.72000000  2.86000000  5.72000000
   2.86000000  5.72000000  2.86000000
   2.86000000  5.72000000  5.72000000
   5.72000000  2.86000000  2.86000000
   4.29000000  4.29000000  4.29000000
   7.15000000  7.15000000  7.15000000
   7.15000000  7.15000000  4.29000000
   4.29000000  4.29000000  7.15000000
   7.15000000  4.29000000  7.15000000
   4.29000000  7.15000000  4.29000000
   4.29000000  7.15000000  7.15000000
   7.15000000  4.29000000  4.29000000
 
 Euler angles ALPHA=     0.0000000  BETA=     0.0000000

 transformation matrix from SAXIS to cartesian coordinates
 ---------------------------------------------------------
     1.0000000 m_x     0.0000000 m_y     0.0000000 m_z
     0.0000000 m_x     1.0000000 m_y     0.0000000 m_z
     0.0000000 m_x     0.0000000 m_y     1.0000000 m_z

 transformation matrix from cartesian coordinates to SAXIS
 ---------------------------------------------------------
     1.0000000 m_x     0.0000000 m_y     0.0000000 m_z
     0.0000000 m_x     1.0000000 m_y     0.0000000 m_z
     0.0000000 m_x     0.0000000 m_y     1.0000000 m_z




--------------------------------------------------------------------------------------------------------


 k-point  1 :   0.0000 0.0000 0.0000  plane waves:   18870
 k-point  2 :   0.3333 0.0000 0.0000  plane waves:   18780
 k-point  3 :  -0.3333 0.0000 0.0000  plane waves:   18780
 k-point  4 :   0.0000 0.3333 0.0000  plane waves:   18780
 k-point  5 :   0.3333 0.3333 0.0000  plane waves:   18784
 k-point  6 :  -0.3333 0.3333 0.0000  plane waves:   18784
 k-point  7 :   0.0000-0.3333 0.0000  plane waves:   18780
 k-point  8 :   0.3333-0.3333 0.0000  plane waves:   18784
 k-point  9 :  -0.3333-0.3333 0.0000  plane waves:   18784
 k-point 10 :   0.0000 0.0000 0.3333  plane waves:   18780
 k-point 11 :   0.3333 0.0000 0.3333  plane waves:   18784
 k-point 12 :  -0.3333 0.0000 0.3333  plane waves:   18784
 k-point 13 :   0.0000 0.3333 0.3333  plane waves:   18784
 k-point 14 :   0.3333 0.3333 0.3333  plane waves:   18792
 k-point 15 :  -0.3333 0.3333 0.3333  plane waves:   18792
 k-point 16 :   0.0000-0.3333 0.3333  plane waves:   18784
 k-point 17 :   0.3333-0.3333 0.3333  plane waves:   18792
 k-point 18 :  -0.3333-0.3333 0.3333  plane waves:   18792
 k-point 19 :   0.0000 0.0000-0.3333  plane waves:   18780
 k-point 20 :   0.3333 0.0000-0.3333  plane waves:   18784
 k-point 21 :  -0.3333 0.0000-0.3333  plane waves:   18784
 k-point 22 :   0.0000 0.3333-0.3333  plane waves:   18784
 k-point 23 :   0.3333 0.3333-0.3333  plane waves:   18792
 k-point 24 :  -0.3333 0.3333-0.3333  plane waves:   18792
 k-point 25 :   0.0000-0.3333-0.3333  plane waves:   18784
 k-point 26 :   0.3333-0.3333-0.3333  plane waves:   18792
 k-point 27 :  -0.3333-0.3333-0.3333  plane waves:   18792

 maximum and minimum number of plane-waves per node :      4778     4584

 maximum number of plane-waves:     18870
 maximum index in each direction: 
   IXMAX=   13   IYMAX=   13   IZMAX=   13
   IXMIN=  -13   IYMIN=  -13   IZMIN=  -13


 parallel 3D FFT for wavefunctions:
    minimum data exchange during FFTs selected (reduces bandwidth)
 parallel 3D FFT for charge:
    minimum data exchange during FFTs selected (reduces bandwidth)


 total amount of memory used by VASP MPI-rank0    93145. kBytes
=======================================================================

   base      :      30000. kBytes
   nonl-proj :      11309. kBytes
   fftplans  :       2196. kBytes
   grid      :       7838. kBytes
   one-center:        870. kBytes
   wavefun   :      40932. kBytes
 
     INWAV:  cpu time    0.0000: real time    0.0000
 Broyden mixing: mesh for mixing (old mesh)
   NGX = 27   NGY = 27   NGZ = 27
  (NGX  =108   NGY  =108   NGZ  =108)
  gives a total of  19683 points

 initial charge density was supplied:
 charge density of overlapping atoms calculated
 number of electron     432.0000000 magnetization       0.0000000      0.0000000    108.0000000
 keeping initial charge density in first step


--------------------------------------------------------------------------------------------------------


 Maximum index for augmentation-charges          505 (set IRDMAX)


--------------------------------------------------------------------------------------------------------


 First call to EWALD:  gamma=   0.207
 Maximum number of real-space cells 3x 3x 3
 Maximum number of reciprocal cells 3x 3x 3

    FEWALD:  cpu time    0.0033: real time    0.0033


--------------------------------------- Iteration      1(   1)  ---------------------------------------


    POTLOK:  cpu time    3.0776: real time    3.2833
    SETDIJ:  cpu time    0.0322: real time    0.0329
     EDDAV:  cpu time   39.6538: real time   40.0593
       DOS:  cpu time    0.0074: real time    0.0076
    --------------------------------------------
      LOOP:  cpu time   42.7710: real time   43.3831

 eigenvalue-minimisations  : 27216
 total energy-change (2. order) : 0.3310796E+04  (-0.1357421E+05)
 number of electron     432.0000000 magnetization       0.0000000      0.0000000    108.0000000
 augmentation part      432.0000000 magnetization       0.0000000      0.0000000    108.0000000

 Free energy of the ion-electron system (eV)
  ---------------------------------------------------
  alpha Z        PSCENC =      3190.73162741
  Ewald energy   TEWEN  =    -31662.39393630
  -Hartree energ DENC   =     -6143.86701307
  -exchange      EXHF   =         0.00000000
  -V(xc)+E(xc)   XCENC  =       234.31031439
  PAW double counting   =     29935.81440495   -30352.19987770
  entropy T*S    EENTRO =         0.00176195
  eigenvalues    EBANDS =      6016.47787426
  atomic energy  EATOM  =     32091.92071770
  Solvation  Ediel_sol  =         0.00000000
  ---------------------------------------------------
  free energy    TOTEN  =      3310.79587358 eV

  energy without entropy =     3310.79411163  energy(sigma->0) =     3310.79528626


--------------------------------------------------------------------------------------------------------




--------------------------------------- Iteration      1(   2)  ---------------------------------------


     EDDAV:  cpu time   36.7360: real time   37.0302
       DOS:  cpu time    0.0064: real time    0.0064
    --------------------------------------------
      LOOP:  cpu time   36.7424: real time   37.0367

 eigenvalue-minimisations  : 27216
 total energy-change (2. order) :-0.3385665E+04  (-0.3318862E+04)
 number of electron     432.0000000 magnetization       0.0000000      0.0000000    108.0000000
 augmentation part      432.0000000 magnetization       0.0000000      0.0000000    108.0000000

 Free energy of the ion-electron system (eV)
  ---------------------------------------------------
  alpha Z        PSCENC =      3190.73162741
  Ewald energy   TEWEN  =    -31662.39393630
  -Hartree energ DENC   =     -6143.86701307
  -exchange      EXHF   =         0.00000000
  -V(xc)+E(xc)   XCENC  =       234.31031439
  PAW double counting   =     29935.81440495   -30352.19987770
  entropy T*S    EENTRO =        -0.00284190
  eigenvalues    EBANDS =      2630.81784226
  atomic energy  EATOM  =     32091.92071770
  Solvation  Ediel_sol  =         0.00000000
  ---------------------------------------------------
  free energy    TOTEN  =       -74.86876226 eV

  energy without entropy =      -74.86592037  energy(sigma->0) =      -74.86781497


--------------------------------------------------------------------------------------------------------




--------------------------------------- Iteration      1(   3)  ---------------------------------------


     EDDAV:  cpu time   44.4436: real time   44.8377
       DOS:  cpu time    0.0065: real time    0.0065
    --------------------------------------------
      LOOP:  cpu time   44.4501: real time   44.8443

 eigenvalue-minimisations  : 35056
 total energy-change (2. order) :-0.3536095E+03  (-0.3192675E+03)
 number of electron     432.0000000 magnetization       0.0000000      0.0000000    108.0000000
 augmentation part      432.0000000 magnetization       0.0000000      0.0000000    108.0000000

 Free energy of the ion-electron system (eV)
  ---------------------------------------------------
  alpha Z        PSCENC =      3190.73162741
  Ewald energy   TEWEN  =    -31662.39393630
  -Hartree energ DENC   =     -6143.86701307
  -exchange      EXHF   =         0.00000000
  -V(xc)+E(xc)   XCENC  =       234.31031439
  PAW double counting   =     29935.81440495   -30352.19987770
  entropy T*S    EENTRO =         0.00223933
  eigenvalues    EBANDS =      2277.20328001
  atomic energy  EATOM  =     32091.92071770
  Solvation  Ediel_sol  =         0.00000000
  ---------------------------------------------------
  free energy    TOTEN  =      -428.47824330 eV

  energy without entropy =     -428.48048262  energy(sigma->0) =     -428.47898974


--------------------------------------------------------------------------------------------------------




--------------------------------------- Iteration      1(   4)  ---------------------------------------


     EDDAV:  cpu time   57.8053: real time   58.2591
       DOS:  cpu time    0.0065: real time    0.0065
    --------------------------------------------
      LOOP:  cpu time   57.8118: real time   58.2656

 eigenvalue-minimisations  : 47264
 total energy-change (2. order) :-0.6564495E+02  (-0.6037689E+02)
 number of electron     432.0000000 magnetization       0.0000000      0.0000000    108.0000000
 augmentation part      432.0000000 magnetization       0.0000000      0.0000000    108.0000000

 Free energy of the ion-electron system (eV)
  ---------------------------------------------------
  alpha Z        PSCENC =      3190.73162741
  Ewald energy   TEWEN  =    -31662.39393630
  -Hartree energ DENC   =     -6143.86701307
  -exchange      EXHF   =         0.00000000
  -V(xc)+E(xc)   XCENC  =       234.31031439
  PAW double counting   =     29935.81440495   -30352.19987770
  entropy T*S    EENTRO =         0.16209183
  eigenvalues    EBANDS =      2211.39847372
  atomic energy  EATOM  =     32091.92071770
  Solvation  Ediel_sol  =         0.00000000
  ---------------------------------------------------
  free energy    TOTEN  =      -494.12319708 eV

  energy without entropy =     -494.28528891  energy(sigma->0) =     -494.17722769


--------------------------------------------------------------------------------------------------------




--------------------------------------- Iteration      1(   5)  ---------------------------------------


     EDDAV:  cpu time   52.1696: real time   52.5758
       DOS:  cpu time    0.0065: real time    0.0065
 


 total charge     
 
# of ion       s       p       d       tot
------------------------------------------
    1        0.532   0.687   5.894   7.113
    2        0.532   0.687   5.894   7.114
    3        0.532   0.687   5.893   7.112
    4        0.532   0.687   5.893   7.113
    5        0.532   0.687   5.893   7.112
    6        0.532   0.687   5.894   7.113
    7        0.532   0.687   5.894   7.114
    8        0.532   0.687   5.893   7.113
    9        0.532   0.687   5.893   7.112
   10        0.532   0.687   5.894   7.114
   11        0.532   0.687   5.894   7.113
   12        0.532   0.687   5.894   7.113
   13        0.532   0.687   5.893   7.112
   14        0.532   0.687   5.893   7.112
   15        0.532   0.687   5.893   7.112
   16        0.532   0.687   5.894   7.113
   17        0.532   0.687   5.893   7.112
   18        0.532   0.687   5.893   7.113
   19        0.532   0.687   5.893   7.112
   20        0.532   0.687   5.893   7.113
   21        0.532   0.687   5.895   7.114
   22        0.532   0.687   5.893   7.113
   23        0.532   0.687   5.894   7.113
   24        0.532   0.687   5.894   7.113
   25        0.532   0.687   5.894   7.114
   26        0.532   0.687   5.894   7.113
   27        0.532   0.687   5.893   7.112
   28        0.532   0.687   5.893   7.112
   29        0.532   0.687   5.893   7.112
   30        0.532   0.687   5.895   7.115
   31        0.532   0.687   5.894   7.114
   32        0.532   0.687   5.894   7.113
   33        0.532   0.687   5.894   7.114
   34        0.532   0.687   5.894   7.113
   35        0.532   0.687   5.894   7.113
   36        0.532   0.687   5.894   7.114
   37        0.532   0.687   5.893   7.112
   38        0.532   0.687   5.894   7.113
   39        0.532   0.687   5.894   7.113
   40        0.532   0.687   5.894   7.113
   41        0.532   0.687   5.894   7.113
   42        0.532   0.687   5.894   7.113
   43        0.532   0.687   5.894   7.113
   44        0.532   0.687   5.894   7.113
   45        0.532   0.687   5.893   7.112
   46        0.532   0.687   5.895   7.114
   47        0.532   0.687   5.894   7.113
   48        0.532   0.687   5.893   7.113
   49        0.532   0.687   5.893   7.112
   50        0.532   0.687   5.895   7.114
   51        0.532   0.687   5.894   7.114
   52        0.532   0.687   5.894   7.113
   53        0.532   0.687   5.892   7.112
   54        0.532   0.687   5.893   7.113
--------------------------------------------------
tot         28.748  37.096 318.257 384.102
 


 magnetization (x)
 
# of ion       s       p       d       tot
------------------------------------------
    1        0.000  -0.000  -0.000  -0.000
    2       -0.000   0.000   0.001   0.001
    3        0.000  -0.000   0.000   0.000
    4        0.000   0.000  -0.002  -0.002
    5       -0.000  -0.000  -0.000  -0.000
    6        0.000  -0.000  -0.001  -0.001
    7       -0.000  -0.000  -0.000  -0.000
    8        0.000  -0.000   0.000   0.000
    9        0.000  -0.000  -0.002  -0.002
   10       -0.000   0.000  -0.000  -0.000
   11        0.000   0.000  -0.002  -0.002
   12       -0.000  -0.000  -0.000  -0.000
   13       -0.000   0.000   0.000   0.000
   14       -0.000   0.000  -0.001  -0.001
   15       -0.000   0.000   0.001   0.001
   16        0.000   0.000  -0.000  -0.000
   17        0.000   0.000  -0.000  -0.000
   18       -0.000   0.000   0.000   0.000
   19       -0.000   0.000  -0.003  -0.003
   20        0.000   0.000  -0.002  -0.002
   21       -0.000  -0.000  -0.002  -0.002
   22       -0.000   0.000   0.000   0.000
   23       -0.000   0.000  -0.002  -0.002
   24       -0.000   0.000  -0.000  -0.000
   25       -0.000   0.000   0.001   0.001
   26        0.000   0.000  -0.000  -0.000
   27        0.000  -0.000   0.001   0.001
   28       -0.000  -0.000  -0.001  -0.001
   29        0.000  -0.000   0.000   0.000
   30        0.000  -0.000   0.001   0.001
   31        0.000   0.000  -0.001  -0.001
   32       -0.000  -0.000  -0.000  -0.000
   33       -0.000   0.000  -0.000  -0.000
   34       -0.000  -0.000  -0.001  -0.001
   35       -0.000   0.000  -0.000  -0.000
   36       -0.000   0.000  -0.001  -0.001
   37       -0.000  -0.000  -0.001  -0.002
   38       -0.000   0.000  -0.000  -0.000
   39        0.000   0.000  -0.000   0.000
   40        0.000   0.000   0.001   0.001
   41       -0.000  -0.000  -0.000  -0.000
   42       -0.000  -0.000  -0.000  -0.000
   43        0.000   0.000   0.001   0.001
   44        0.000   0.000   0.002   0.002
   45        0.000  -0.000   0.000   0.000
   46       -0.000  -0.000  -0.001  -0.001
   47        0.000  -0.000  -0.001  -0.001
   48        0.000  -0.000   0.000   0.000
   49       -0.000   0.000   0.001   0.001
   50       -0.000  -0.000  -0.001  -0.001
   51        0.000   0.000   0.001   0.001
   52        0.000   0.000   0.000   0.000
   53       -0.000  -0.000   0.000   0.000
   54        0.000  -0.000  -0.000  -0.000
--------------------------------------------------
tot         -0.000  -0.000  -0.013  -0.013
 


 magnetization (y)
 
# of ion       s       p       d       tot
------------------------------------------
    1        0.000   0.000   0.000   0.000
    2       -0.000  -0.000   0.002   0.001
    3        0.000   0.000   0.000   0.001
    4       -0.000   0.000  -0.000  -0.000
    5        0.000  -0.000  -0.000  -0.000
    6       -0.000  -0.000  -0.000  -0.000
    7        0.000  -0.000  -0.003  -0.003
    8       -0.000  -0.000   0.000   0.000
    9        0.000  -0.000   0.000   0.000
   10        0.000   0.000  -0.001  -0.001
   11       -0.000  -0.000  -0.001  -0.001
   12       -0.000   0.000  -0.002  -0.002
   13        0.000  -0.000  -0.003  -0.003
   14       -0.000   0.000   0.001   0.001
   15        0.000  -0.000  -0.000  -0.000
   16        0.000   0.000  -0.002  -0.002
   17        0.000   0.000   0.002   0.002
   18        0.000   0.000   0.000   0.000
   19       -0.000  -0.000  -0.000  -0.000
   20       -0.000  -0.000   0.002   0.002
   21        0.000   0.000   0.001   0.001
   22        0.000   0.000  -0.000  -0.000
   23       -0.000  -0.000   0.001   0.001
   24       -0.000   0.000   0.000   0.000
   25        0.000  -0.000   0.001   0.001
   26        0.000  -0.000  -0.002  -0.002
   27       -0.000  -0.000   0.000   0.000
   28        0.000  -0.000   0.001   0.001
   29        0.000   0.000   0.000   0.000
   30        0.000  -0.000  -0.000  -0.000
   31       -0.000   0.000  -0.001  -0.001
   32       -0.000   0.000  -0.000  -0.000
   33       -0.000  -0.000  -0.000  -0.000
   34        0.000   0.000  -0.001  -0.001
   35       -0.000  -0.000  -0.000  -0.000
   36        0.000   0.000   0.002   0.002
   37       -0.000  -0.000  -0.000  -0.000
   38       -0.000   0.000  -0.001  -0.001
   39        0.000  -0.000  -0.002  -0.002
   40        0.000  -0.000   0.001   0.001
   41        0.000   0.000   0.001   0.001
   42        0.000  -0.000   0.000   0.000
   43        0.000  -0.000  -0.001  -0.001
   44       -0.000   0.000  -0.001  -0.001
   45       -0.000   0.000   0.001   0.001
   46        0.000   0.000   0.002   0.002
   47       -0.000  -0.000   0.001   0.001
   48        0.000  -0.000  -0.001  -0.001
   49       -0.000   0.000   0.002   0.002
   50       -0.000  -0.000   0.001   0.001
   51        0.000   0.000   0.000   0.000
   52        0.000  -0.000  -0.001  -0.001
   53       -0.000   0.000   0.000   0.000
   54       -0.000   0.000  -0.002  -0.002
--------------------------------------------------
tot          0.000  -0.000  -0.006  -0.007
 


 magnetization (z)
 
# of ion       s       p       d       tot
------------------------------------------
    1        0.005   0.010   1.797   1.813
    2        0.005   0.010   1.798   1.813
    3        0.005   0.010   1.797   1.813
    4        0.005   0.010   1.797   1.813
    5        0.005   0.010   1.798   1.813
    6        0.005   0.010   1.800   1.815
    7        0.005   0.010   1.797   1.813
    8        0.005   0.010   1.797   1.813
    9        0.005   0.010   1.797   1.813
   10        0.005   0.010   1.797   1.813
   11        0.005   0.010   1.799   1.815
   12        0.005   0.010   1.798   1.814
   13        0.005   0.010   1.797   1.813
   14        0.005   0.010   1.797   1.813
   15        0.005   0.010   1.797   1.813
   16        0.005   0.010   1.797   1.813
   17        0.005   0.010   1.799   1.814
   18        0.005   0.010   1.799   1.814
   19        0.005   0.010   1.796   1.812
   20        0.005   0.010   1.798   1.813
   21        0.005   0.010   1.798   1.813
   22        0.005   0.010   1.799   1.815
   23        0.005   0.010   1.798   1.814
   24        0.005   0.010   1.797   1.813
   25        0.005   0.010   1.798   1.814
   26        0.005   0.010   1.797   1.813
   27        0.005   0.010   1.798   1.813
   28        0.005   0.010   1.798   1.814
   29        0.005   0.010   1.798   1.813
   30        0.005   0.010   1.798   1.813
   31        0.005   0.010   1.799   1.814
   32        0.005   0.010   1.798   1.814
   33        0.005   0.010   1.799   1.814
   34        0.005   0.010   1.798   1.813
   35        0.005   0.010   1.798   1.814
   36        0.005   0.010   1.798   1.813
   37        0.005   0.010   1.797   1.813
   38        0.005   0.010   1.798   1.814
   39        0.005   0.010   1.797   1.813
   40        0.005   0.010   1.798   1.814
   41        0.005   0.010   1.798   1.814
   42        0.005   0.010   1.798   1.814
   43        0.005   0.010   1.798   1.814
   44        0.005   0.010   1.797   1.813
   45        0.005   0.010   1.797   1.813
   46        0.005   0.010   1.799   1.815
   47        0.005   0.010   1.797   1.813
   48        0.005   0.010   1.798   1.814
   49        0.005   0.010   1.797   1.813
   50        0.005   0.010   1.797   1.813
   51        0.005   0.010   1.797   1.812
   52        0.005   0.010   1.798   1.814
   53        0.005   0.010   1.797   1.812
   54        0.005   0.010   1.798   1.814
--------------------------------------------------
tot          0.285   0.560  97.081  97.926
 
    CHARGE:  cpu time    1.0062: real time    1.0227
    MIXING:  cpu time    0.0090: real time    0.0102
    --------------------------------------------
      LOOP:  cpu time   53.1914: real time   53.6152

 eigenvalue-minimisations  : 42224
 total energy-change (2. order) :-0.6897612E+01  (-0.6465771E+01)
 number of electron     431.9998849 magnetization      -0.0107707     -0.0054225    101.9538844
 augmentation part      194.3797277 magnetization      -0.0066703     -0.0031555     73.3822253

 Broyden mixing:
  rms(total) = 0.81285E+01    rms(broyden)= 0.81235E+01
  rms(prec ) = 0.99253E+01
  weight for this iteration     100.00

 Free energy of the ion-electron system (eV)
  ---------------------------------------------------
  alpha Z        PSCENC =      3190.73162741
  Ewald energy   TEWEN  =    -31662.39393630
  -Hartree energ DENC   =     -6143.86701307
  -exchange      EXHF   =         0.00000000
  -V(xc)+E(xc)   XCENC  =       234.31031439
  PAW double counting   =     29935.81440495   -30352.19987770
  entropy T*S    EENTRO =         0.24383424
  eigenvalues    EBANDS =      2204.41911943
  atomic energy  EATOM  =     32091.92071770
  Solvation  Ediel_sol  =         0.00000000
  ---------------------------------------------------
  free energy    TOTEN  =      -501.02080897 eV

  energy without entropy =     -501.26464320  energy(sigma->0) =     -501.10208704


--------------------------------------------------------------------------------------------------------




--------------------------------------- Iteration      1(   6)  ---------------------------------------


    POTLOK:  cpu time    0.0744: real time    0.0851
    SETDIJ:  cpu time    0.0280: real time    0.0282
     EDDAV:  cpu time   49.0282: real time   49.4046
       DOS:  cpu time    0.0074: real time    0.0074
    CHARGE:  cpu time    0.8246: real time    0.8306
    MIXING:  cpu time    0.0045: real time    0.0049
    --------------------------------------------
      LOOP:  cpu time   49.9670: real time   50.3608

 eigenvalue-minimisations  : 39256
 total energy-change (2. order) : 0.5309915E+02  (-0.2290651E+02)
 number of electron     431.9998748 magnetization       0.1303604      0.0603715    108.2980923
 augmentation part      213.5853863 magnetization       0.1177189      0.0558273     83.9518896

 Broyden mixing:
  rms(total) = 0.40304E+01    rms(broyden)= 0.40294E+01
  rms(prec ) = 0.45800E+01
  weight for this iteration     100.00

 eigenvalues of (default mixing * dielectric matrix)
  average eigenvalue GAMMA=   1.4479
  1.4479

 Free energy of the ion-electron system (eV)
  ---------------------------------------------------
  alpha Z        PSCENC =      3190.73162741
  Ewald energy   TEWEN  =    -31662.39393630
  -Hartree energ DENC   =     -5623.50749002
  -exchange      EXHF   =         0.00000000
  -V(xc)+E(xc)   XCENC  =       214.12497157
  PAW double counting   =     31107.95007455   -31462.34650952
  entropy T*S    EENTRO =         0.05442435
  eigenvalues    EBANDS =      1695.54478262
  atomic energy  EATOM  =     32091.92071770
  Solvation  Ediel_sol  =         0.00000000
  ---------------------------------------------------
  free energy    TOTEN  =      -447.92166015 eV

  energy without entropy =     -447.97608450  energy(sigma->0) =     -447.93980160


--------------------------------------------------------------------------------------------------------




--------------------------------------- Iteration      1(   7)  ---------------------------------------


    POTLOK:  cpu time    0.0970: real time    0.1068
    SETDIJ:  cpu time    0.0285: real time    0.0287
     EDDAV:  cpu time   49.8437: real time   50.2259
       DOS:  cpu time    0.0073: real time    0.0073
    CHARGE:  cpu time    0.8339: real time    0.8404
    MIXING:  cpu time    0.0020: real time    0.0020
    --------------------------------------------
      LOOP:  cpu time   50.8124: real time   51.2111

 eigenvalue-minimisations  : 39872
 total energy-change (2. order) : 0.2127022E+01  (-0.9283607E+01)
 number of electron     431.9998721 magnetization      -0.3497518     -0.1694121    110.6095033
 augmentation part      226.4356973 magnetization      -0.1134282     -0.0610047     88.4937294

 Broyden mixing:
  rms(total) = 0.30855E+01    rms(broyden)= 0.30851E+01
  rms(prec ) = 0.31165E+01
  weight for this iteration     100.00

 eigenvalues of (default mixing * dielectric matrix)
  average eigenvalue GAMMA=   1.1031
  1.5416  0.6647

 Free energy of the ion-electron system (eV)
  ---------------------------------------------------
  alpha Z        PSCENC =      3190.73162741
  Ewald energy   TEWEN  =    -31662.39393630
  -Hartree energ DENC   =     -5316.13730212
  -exchange      EXHF   =         0.00000000
  -V(xc)+E(xc)   XCENC  =       216.06990650
  PAW double counting   =     32820.04477878   -33175.88462223
  entropy T*S    EENTRO =        -0.01533282
  eigenvalues    EBANDS =      1389.93660003
  atomic energy  EATOM  =     32091.92071770
  Solvation  Ediel_sol  =         0.00000000
  ---------------------------------------------------
  free energy    TOTEN  =      -445.79463805 eV

  energy without entropy =     -445.77930523  energy(sigma->0) =     -445.78952711


--------------------------------------------------------------------------------------------------------




--------------------------------------- Iteration      1(   8)  ---------------------------------------


    POTLOK:  cpu time    0.0687: real time    0.0799
    SETDIJ:  cpu time    0.0286: real time    0.0288
     EDDAV:  cpu time   58.6169: real time   59.0661
       DOS:  cpu time    0.0074: real time    0.0075
    CHARGE:  cpu time    0.8223: real time    0.8287
    MIXING:  cpu time    0.0020: real time    0.0020
    --------------------------------------------
      LOOP:  cpu time   59.5460: real time   60.0130

 eigenvalue-minimisations  : 47824
 total energy-change (2. order) :-0.4599643E+01  (-0.5211178E+01)
 number of electron     431.9998720 magnetization       0.2684209      0.1203778    112.8553075
 augmentation part      226.5123922 magnetization      -0.6042136     -0.2968889     91.4230715

 Broyden mixing:
  rms(total) = 0.42761E+01    rms(broyden)= 0.42759E+01
  rms(prec ) = 0.43231E+01
  weight for this iteration     100.00

 eigenvalues of (default mixing * dielectric matrix)
  average eigenvalue GAMMA=   1.1642
  2.1769  1.2189  0.0969

 Free energy of the ion-electron system (eV)
  ---------------------------------------------------
  alpha Z        PSCENC =      3190.73162741
  Ewald energy   TEWEN  =    -31662.39393630
  -Hartree energ DENC   =     -5315.46247018
  -exchange      EXHF   =         0.00000000
  -V(xc)+E(xc)   XCENC  =       218.83944947
  PAW double counting   =     33170.32752086   -33537.10651540
  entropy T*S    EENTRO =         0.00429327
  eigenvalues    EBANDS =      1393.15110817
  atomic energy  EATOM  =     32091.92071770
  Solvation  Ediel_sol  =         0.00000000
  ---------------------------------------------------
  free energy    TOTEN  =      -450.39428088 eV

  energy without entropy =     -450.39857415  energy(sigma->0) =     -450.39571197


--------------------------------------------------------------------------------------------------------




--------------------------------------- Iteration      1(   9)  ---------------------------------------


    POTLOK:  cpu time    0.0712: real time    0.0811
    SETDIJ:  cpu time    0.0281: real time    0.0283
     EDDAV:  cpu time   63.1039: real time   63.5812
       DOS:  cpu time    0.0073: real time    0.0073
    CHARGE:  cpu time    0.8217: real time    0.8282
    MIXING:  cpu time    0.0021: real time    0.0021
    --------------------------------------------
      LOOP:  cpu time   64.0344: real time   64.5283

 eigenvalue-minimisations  : 51716
 total energy-change (2. order) : 0.3861575E+01  (-0.6149805E+01)
 number of electron     431.9998720 magnetization      -1.2911658     -0.4777306    113.8806278
 augmentation part      226.2457680 magnetization      -0.6238862     -0.1797112     92.2730251

 Broyden mixing:
  rms(total) = 0.28633E+01    rms(broyden)= 0.28631E+01
  rms(prec ) = 0.28771E+01
  weight for this iteration     100.00

 eigenvalues of (default mixing * dielectric matrix)
  average eigenvalue GAMMA=   1.0404
  2.1466  0.9607  0.9607  0.0935

 Free energy of the ion-electron system (eV)
  ---------------------------------------------------
  alpha Z        PSCENC =      3190.73162741
  Ewald energy   TEWEN  =    -31662.39393630
  -Hartree energ DENC   =     -5315.09514946
  -exchange      EXHF   =         0.00000000
  -V(xc)+E(xc)   XCENC  =       221.65014287
  PAW double counting   =     33590.33712428   -33969.77515088
  entropy T*S    EENTRO =        -0.00942922
  eigenvalues    EBANDS =      1406.22175932
  atomic energy  EATOM  =     32091.92071770
  Solvation  Ediel_sol  =         0.00000000
  ---------------------------------------------------
  free energy    TOTEN  =      -446.53270542 eV

  energy without entropy =     -446.52327620  energy(sigma->0) =     -446.52956235


--------------------------------------------------------------------------------------------------------




--------------------------------------- Iteration      1(  10)  ---------------------------------------


    POTLOK:  cpu time    0.0696: real time    0.0804
    SETDIJ:  cpu time    0.0283: real time    0.0284
     EDDAV:  cpu time   65.9538: real time   66.4330
       DOS:  cpu time    0.0069: real time    0.0070
 


 total charge     
 
# of ion       s       p       d       tot
------------------------------------------
    1        0.474   0.507   6.262   7.243
    2        0.470   0.497   6.006   6.973
    3        0.462   0.477   5.203   6.142
    4        0.468   0.493   5.807   6.769
    5        0.475   0.510   6.234   7.219
    6        0.481   0.526   6.638   7.645
    7        0.481   0.525   6.555   7.562
    8        0.473   0.506   6.242   7.221
    9        0.467   0.488   5.766   6.721
   10        0.480   0.525   6.646   7.651
   11        0.480   0.523   6.535   7.538
   12        0.475   0.513   6.355   7.343
   13        0.468   0.495   5.747   6.711
   14        0.462   0.478   5.312   6.251
   15        0.469   0.496   5.906   6.870
   16        0.469   0.495   5.909   6.873
   17        0.463   0.476   5.286   6.224
   18        0.478   0.520   6.420   7.418
   19        0.463   0.481   5.161   6.105
   20        0.475   0.510   6.200   7.185
   21        0.472   0.505   6.130   7.107
   22        0.471   0.504   6.168   7.143
   23        0.484   0.535   6.748   7.766
   24        0.482   0.528   6.742   7.752
   25        0.489   0.548   7.054   8.091
   26        0.475   0.511   6.254   7.240
   27        0.468   0.496   5.895   6.858
   28        0.468   0.498   5.960   6.927
   29        0.460   0.471   5.186   6.118
   30        0.481   0.530   6.778   7.790
   31        0.479   0.519   6.446   7.444
   32        0.483   0.534   6.716   7.733
   33        0.489   0.544   6.977   8.010
   34        0.473   0.503   6.259   7.235
   35        0.482   0.529   6.600   7.610
   36        0.468   0.497   5.953   6.918
   37        0.474   0.513   6.202   7.189
   38        0.473   0.507   6.216   7.196
   39        0.473   0.508   6.212   7.193
   40        0.477   0.517   6.346   7.340
   41        0.472   0.507   6.254   7.233
   42        0.483   0.533   6.687   7.703
   43        0.486   0.540   6.850   7.876
   44        0.466   0.491   5.736   6.693
   45        0.473   0.508   6.180   7.161
   46        0.479   0.523   6.530   7.531
   47        0.480   0.523   6.613   7.616
   48        0.474   0.511   6.263   7.247
   49        0.463   0.481   5.390   6.333
   50        0.489   0.548   7.016   8.053
   51        0.484   0.537   6.791   7.812
   52        0.470   0.499   6.164   7.133
   53        0.476   0.516   6.355   7.347
   54        0.471   0.503   6.015   6.990
--------------------------------------------------
tot         25.620  27.558 335.876 389.053
 


 magnetization (x)
 
# of ion       s       p       d       tot
------------------------------------------
    1        0.001   0.000   0.715   0.716
    2        0.001  -0.001   0.454   0.454
    3       -0.001  -0.000   0.149   0.148
    4        0.001   0.006   1.247   1.255
    5        0.002   0.003   1.257   1.262
    6        0.000  -0.000   0.540   0.540
    7       -0.003  -0.008  -0.649  -0.659
    8        0.001   0.003   0.571   0.574
    9        0.001   0.002   0.757   0.759
   10        0.001   0.005   0.789   0.795
   11        0.002   0.001   0.782   0.785
   12       -0.001  -0.005  -0.124  -0.130
   13       -0.001  -0.004  -0.163  -0.168
   14       -0.002  -0.003  -0.140  -0.145
   15       -0.001  -0.002  -0.051  -0.055
   16       -0.003  -0.004  -0.661  -0.668
   17       -0.002  -0.002  -0.317  -0.320
   18       -0.001  -0.001  -0.033  -0.034
   19       -0.003  -0.005  -0.621  -0.630
   20       -0.002  -0.003   0.029   0.024
   21        0.002   0.006   1.420   1.428
   22        0.000   0.001   0.657   0.659
   23       -0.002  -0.005  -0.091  -0.098
   24       -0.001   0.001   0.213   0.213
   25       -0.001  -0.000   0.259   0.258
   26       -0.001  -0.002   0.065   0.062
   27       -0.002  -0.006  -0.514  -0.522
   28       -0.001   0.001   0.342   0.343
   29        0.001   0.003   0.841   0.845
   30       -0.001  -0.001  -0.020  -0.022
   31        0.003   0.007   1.438   1.449
   32        0.001   0.001   0.202   0.203
   33        0.002   0.003   0.761   0.766
   34        0.000   0.001   0.357   0.358
   35        0.002   0.004   0.940   0.946
   36       -0.001  -0.002   0.022   0.018
   37        0.001   0.004   0.799   0.804
   38        0.001  -0.001   0.524   0.524
   39        0.000   0.001   0.689   0.691
   40       -0.003  -0.006  -0.843  -0.852
   41       -0.001  -0.001  -0.082  -0.084
   42        0.000   0.003   0.672   0.676
   43       -0.001  -0.002  -0.073  -0.077
   44       -0.001  -0.003  -0.059  -0.063
   45       -0.001  -0.003  -0.404  -0.408
   46       -0.001   0.003   0.543   0.545
   47       -0.001  -0.006  -0.264  -0.270
   48        0.000   0.004   0.543   0.547
   49       -0.000  -0.000   0.371   0.370
   50       -0.001  -0.007  -0.437  -0.445
   51       -0.002  -0.006  -0.368  -0.375
   52       -0.000  -0.002   0.231   0.229
   53        0.000  -0.001   0.222   0.222
   54       -0.001  -0.002  -0.137  -0.140
--------------------------------------------------
tot         -0.017  -0.033  13.348  13.299
 


 magnetization (y)
 
# of ion       s       p       d       tot
------------------------------------------
    1       -0.000  -0.006  -0.199  -0.205
    2        0.001   0.001   0.715   0.718
    3       -0.004  -0.013  -1.594  -1.611
    4       -0.001  -0.004  -0.123  -0.128
    5        0.000  -0.002   0.208   0.207
    6       -0.000   0.003   0.440   0.443
    7        0.001   0.002   0.456   0.459
    8        0.001  -0.001   0.524   0.524
    9       -0.000  -0.002   0.076   0.074
   10       -0.001  -0.004  -0.326  -0.331
   11        0.001   0.002   0.603   0.606
   12       -0.000  -0.003   0.123   0.120
   13       -0.002   0.001  -0.250  -0.250
   14       -0.001  -0.006  -0.443  -0.450
   15        0.003   0.005   1.068   1.076
   16       -0.000  -0.002   0.065   0.063
   17        0.000  -0.005  -0.116  -0.121
   18        0.001   0.005   1.019   1.025
   19        0.000  -0.002   0.223   0.221
   20        0.000   0.002   0.525   0.527
   21        0.000  -0.001   0.046   0.046
   22       -0.001  -0.001   0.068   0.065
   23        0.002   0.004   0.519   0.525
   24       -0.001  -0.003  -0.271  -0.276
   25       -0.001  -0.003  -0.209  -0.213
   26        0.001   0.004   0.627   0.632
   27        0.001   0.004   0.539   0.544
   28       -0.000  -0.000  -0.061  -0.061
   29       -0.002  -0.005  -0.781  -0.788
   30        0.001   0.006   0.575   0.582
   31        0.001   0.002   0.283   0.286
   32        0.002   0.007   1.036   1.045
   33       -0.001  -0.005  -0.378  -0.384
   34        0.000  -0.002   0.410   0.408
   35        0.002   0.006   0.652   0.659
   36       -0.001  -0.008  -0.435  -0.444
   37       -0.000  -0.003  -0.223  -0.227
   38        0.002   0.007   0.978   0.987
   39       -0.001  -0.000   0.099   0.098
   40       -0.001  -0.000  -0.143  -0.144
   41       -0.003  -0.007  -0.645  -0.655
   42       -0.002  -0.006  -0.716  -0.724
   43       -0.003  -0.004  -0.564  -0.571
   44        0.002   0.004   1.022   1.028
   45       -0.001  -0.003  -0.147  -0.150
   46        0.000   0.002   0.447   0.449
   47        0.000   0.001   0.020   0.022
   48       -0.000  -0.002  -0.028  -0.030
   49       -0.001  -0.006  -0.367  -0.373
   50       -0.001  -0.006  -0.632  -0.639
   51        0.003   0.008   0.912   0.922
   52       -0.000  -0.001  -0.107  -0.108
   53       -0.001   0.000  -0.005  -0.005
   54       -0.001  -0.002  -0.226  -0.229
--------------------------------------------------
tot         -0.005  -0.042   5.290   5.243
 


 magnetization (z)
 
# of ion       s       p       d       tot
------------------------------------------
    1       -0.011  -0.046   2.197   2.140
    2       -0.012  -0.046   2.239   2.182
    3       -0.016  -0.042   1.964   1.906
    4       -0.013  -0.045   2.147   2.089
    5       -0.010  -0.047   2.137   2.080
    6       -0.008  -0.047   2.092   2.037
    7       -0.008  -0.047   2.100   2.045
    8       -0.011  -0.045   2.193   2.138
    9       -0.012  -0.044   2.208   2.152
   10       -0.009  -0.046   2.022   1.967
   11       -0.008  -0.047   2.065   2.010
   12       -0.010  -0.047   2.278   2.221
   13       -0.012  -0.046   2.295   2.237
   14       -0.015  -0.043   2.111   2.053
   15       -0.012  -0.045   2.180   2.123
   16       -0.013  -0.045   2.245   2.187
   17       -0.015  -0.042   2.023   1.967
   18       -0.009  -0.046   2.113   2.057
   19       -0.015  -0.044   2.032   1.974
   20       -0.010  -0.048   2.311   2.254
   21       -0.012  -0.046   2.086   2.028
   22       -0.013  -0.046   2.226   2.168
   23       -0.007  -0.048   2.069   2.014
   24       -0.007  -0.048   2.085   2.029
   25       -0.005  -0.049   1.893   1.839
   26       -0.010  -0.046   2.243   2.187
   27       -0.013  -0.045   2.241   2.184
   28       -0.013  -0.044   2.273   2.216
   29       -0.016  -0.041   2.019   1.961
   30       -0.009  -0.046   2.013   1.958
   31       -0.008  -0.046   1.938   1.883
   32       -0.007  -0.047   1.961   1.907
   33       -0.005  -0.048   1.831   1.778
   34       -0.011  -0.047   2.241   2.184
   35       -0.008  -0.047   2.000   1.945
   36       -0.014  -0.046   2.267   2.207
   37       -0.011  -0.047   2.262   2.205
   38       -0.011  -0.046   2.142   2.084
   39       -0.011  -0.045   2.201   2.145
   40       -0.009  -0.047   2.203   2.147
   41       -0.012  -0.045   2.203   2.146
   42       -0.008  -0.047   2.000   1.945
   43       -0.007  -0.049   2.002   1.947
   44       -0.014  -0.044   2.141   2.082
   45       -0.011  -0.046   2.304   2.248
   46       -0.009  -0.047   2.140   2.084
   47       -0.009  -0.046   2.148   2.093
   48       -0.011  -0.046   2.266   2.209
   49       -0.015  -0.044   2.159   2.100
   50       -0.005  -0.047   1.844   1.791
   51       -0.008  -0.047   1.947   1.892
   52       -0.012  -0.046   2.238   2.181
   53       -0.008  -0.045   2.281   2.227
   54       -0.012  -0.046   2.317   2.259
--------------------------------------------------
tot         -0.566  -2.475 115.135 112.093
 
    CHARGE:  cpu time    0.9948: real time    1.0016
    MIXING:  cpu time    0.0022: real time    0.0022
    --------------------------------------------
      LOOP:  cpu time   67.0554: real time   67.5524

 eigenvalue-minimisations  : 53872
 total energy-change (2. order) :-0.1834366E+02  (-0.1236767E+02)
 number of electron     431.9998731 magnetization       0.1142102      0.0749690    112.6343657
 augmentation part      226.1892854 magnetization      -2.8202412     -0.9701131     92.3270640

 Broyden mixing:
  rms(total) = 0.64088E+01    rms(broyden)= 0.64081E+01
  rms(prec ) = 0.83947E+01
  weight for this iteration     100.00

 eigenvalues of (default mixing * dielectric matrix)
  average eigenvalue GAMMA=   0.9780
  1.9941  1.3463  1.3463  0.0917  0.1116

 Free energy of the ion-electron system (eV)
  ---------------------------------------------------
  alpha Z        PSCENC =      3190.73162741
  Ewald energy   TEWEN  =    -31662.39393630
  -Hartree energ DENC   =     -5308.24852928
  -exchange      EXHF   =         0.00000000
  -V(xc)+E(xc)   XCENC  =       223.66405386
  PAW double counting   =     34343.14862914   -34742.55847937
  entropy T*S    EENTRO =         0.05885254
  eigenvalues    EBANDS =      1399.86438339
  atomic energy  EATOM  =     32091.92071770
  Solvation  Ediel_sol  =         0.00000000
  ---------------------------------------------------
  free energy    TOTEN  =      -464.87636280 eV

  energy without entropy =     -464.93521534  energy(sigma->0) =     -464.89598031


--------------------------------------------------------------------------------------------------------




--------------------------------------- Iteration      1(  11)  ---------------------------------------


    POTLOK:  cpu time    0.0698: real time    0.0820
    SETDIJ:  cpu time    0.0285: real time    0.0287
     EDDAV:  cpu time   66.7409: real time   67.2613
       DOS:  cpu time    0.0073: real time    0.0073
    CHARGE:  cpu time    0.8192: real time    0.8257
    MIXING:  cpu time    0.0025: real time    0.0025
    --------------------------------------------
      LOOP:  cpu time   67.6682: real time   68.2076

 eigenvalue-minimisations  : 54432
 total energy-change (2. order) : 0.1427821E+02  (-0.1585511E+02)
 number of electron     431.9998720 magnetization      -0.6928600     -0.4276665    112.6967874
 augmentation part      225.9934745 magnetization      -0.0661332      0.0020919     91.8476503

 Broyden mixing:
  rms(total) = 0.40359E+01    rms(broyden)= 0.40351E+01
[...]
   0.322E-03 -.135E-04 0.131E-04   0.153E-05 -.153E-05 0.153E-05   -.754E-04 -.425E-04 -.281E-03   -.262E-03 0.480E-04 0.161E-03
   0.268E-06 0.183E-03 -.455E-04   -.409E-13 -.153E-05 0.153E-05   -.552E-04 -.143E-03 -.666E-04   0.645E-04 -.405E-04 0.869E-04
   0.228E-03 -.228E-03 0.201E-04   0.153E-05 -.153E-05 -.528E-14   0.373E-04 0.958E-04 0.230E-03   -.289E-03 0.131E-03 -.196E-03
   -.495E-04 -.337E-03 -.537E-04   -.135E-12 -.498E-13 -.153E-05   0.226E-04 0.317E-04 0.380E-04   0.135E-04 0.338E-03 0.104E-04
   0.222E-03 0.845E-04 -.118E-03   0.153E-05 0.153E-05 -.153E-05   -.579E-04 0.134E-03 0.915E-04   -.199E-03 -.204E-03 0.568E-04
   0.331E-04 -.371E-03 -.170E-03   0.153E-05 0.268E-13 -.153E-05   0.180E-03 0.159E-03 -.633E-05   -.177E-03 0.251E-03 0.182E-03
   -.278E-04 0.404E-03 0.146E-03   -.107E-13 0.153E-05 -.153E-05   0.791E-04 -.122E-03 -.155E-03   -.321E-04 -.306E-03 -.723E-05
   -.723E-04 -.389E-03 0.385E-03   0.153E-05 0.153E-05 0.153E-05   -.949E-04 0.163E-03 -.134E-03   0.147E-03 0.250E-03 -.272E-03
   0.251E-03 -.122E-03 0.597E-04   -.153E-05 -.153E-05 -.153E-05   0.142E-04 0.606E-04 0.933E-05   -.263E-03 0.538E-04 -.673E-04
   0.151E-03 0.106E-03 0.857E-04   -.153E-05 -.153E-05 0.153E-05   0.513E-05 -.954E-04 0.233E-04   -.168E-03 0.807E-05 -.132E-03
   -.264E-03 -.227E-03 0.727E-04   0.153E-05 0.153E-05 -.153E-05   -.926E-05 -.111E-03 -.132E-03   0.251E-03 0.303E-03 0.351E-04
   0.156E-03 -.242E-03 0.153E-03   -.153E-05 0.153E-05 -.153E-05   0.202E-04 0.373E-04 0.852E-05   -.175E-03 0.204E-03 -.110E-03
   -.107E-03 -.176E-03 0.394E-03   0.153E-05 -.153E-05 0.153E-05   -.149E-03 0.134E-03 -.126E-03   0.215E-03 0.458E-04 -.290E-03
   -.277E-03 -.377E-04 -.214E-03   0.153E-05 -.153E-05 -.153E-05   0.785E-04 -.571E-04 0.614E-04   0.202E-03 0.788E-04 0.158E-03
   0.439E-03 -.201E-03 0.190E-03   -.153E-05 0.153E-05 0.153E-05   -.614E-03 -.586E-04 -.129E-03   -.319E-04 0.237E-03 -.986E-04
   -.271E-03 -.102E-03 0.586E-05   -.213E-12 -.391E-13 -.995E-13   0.174E-03 -.127E-03 0.171E-03   0.142E-03 0.210E-03 -.118E-03
   0.368E-03 0.988E-04 -.268E-03   0.153E-05 0.153E-05 0.153E-05   -.134E-03 0.198E-03 0.144E-03   -.261E-03 -.243E-03 0.141E-03
   0.388E-03 0.371E-03 0.194E-03   0.153E-05 0.153E-05 -.107E-13   -.693E-05 -.162E-04 0.484E-04   -.381E-03 -.344E-03 -.225E-03
   0.105E-03 -.230E-03 -.758E-04   -.124E-12 -.568E-13 0.153E-05   -.831E-04 -.612E-04 -.622E-04   -.433E-05 0.283E-03 0.106E-03
   0.228E-03 -.185E-03 0.373E-04   0.153E-05 -.285E-13 0.153E-05   0.956E-05 -.247E-04 -.541E-04   -.255E-03 0.206E-03 0.267E-04
   -.876E-04 0.306E-03 0.170E-03   -.124E-12 0.153E-05 -.142E-13   -.500E-04 -.515E-04 -.110E-04   0.158E-03 -.258E-03 -.172E-03
   -.683E-04 0.387E-03 -.286E-03   -.108E-12 0.153E-05 0.153E-05   0.173E-03 -.125E-03 0.144E-03   -.498E-04 -.284E-03 0.198E-03
   0.322E-03 -.313E-03 0.176E-03   0.153E-05 -.337E-13 -.764E-13   -.169E-03 0.939E-04 0.437E-04   -.215E-03 0.225E-03 -.200E-03
 -----------------------------------------------------------------------------------------------
   -.303E-04 0.380E-04 -.292E-04   0.497E-12 0.674E-12 0.340E-12   -.727E-04 0.983E-04 0.894E-05   0.411E-05 -.271E-05 0.120E-04
 
 
 POSITION                                       TOTAL-FORCE (eV/Angst)
 -----------------------------------------------------------------------------------
      0.00000      0.00000      0.00000         0.000006      0.000002     -0.000039
      1.43000      1.43000      1.43000        -0.000021      0.000026      0.000001
      0.00000      0.00000      2.86000         0.000022     -0.000040     -0.000030
      0.00000      0.00000      5.72000         0.000036      0.000025      0.000027
      2.86000      0.00000      0.00000        -0.000020      0.000018     -0.000029
      5.72000      0.00000      0.00000        -0.000026     -0.000012      0.000055
      0.00000      2.86000      0.00000        -0.000004      0.000047     -0.000013
      0.00000      5.72000      0.00000         0.000017     -0.000052     -0.000072
      1.43000      1.43000      4.29000        -0.000012     -0.000048     -0.000041
      1.43000      1.43000      7.15000         0.000009     -0.000022      0.000034
      4.29000      1.43000      1.43000        -0.000033     -0.000081      0.000009
      7.15000      1.43000      1.43000         0.000052     -0.000033     -0.000003
      1.43000      4.29000      1.43000         0.000004     -0.000023     -0.000037
      1.43000      7.15000      1.43000         0.000054      0.000053      0.000107
      0.00000      2.86000      2.86000         0.000033      0.000007      0.000008
      0.00000      5.72000      5.72000         0.000013     -0.000060      0.000017
      0.00000      5.72000      2.86000         0.000007      0.000047     -0.000003
      0.00000      2.86000      5.72000         0.000015     -0.000005      0.000032
      2.86000      0.00000      2.86000         0.000024     -0.000000      0.000079
      5.72000      0.00000      5.72000        -0.000016     -0.000031     -0.000036
      2.86000      0.00000      5.72000        -0.000010      0.000066     -0.000023
      5.72000      0.00000      2.86000        -0.000025      0.000039      0.000018
      2.86000      2.86000      0.00000         0.000051     -0.000030      0.000011
      5.72000      5.72000      0.00000         0.000035     -0.000072     -0.000028
      5.72000      2.86000      0.00000         0.000053      0.000101      0.000003
      2.86000      5.72000      0.00000         0.000029     -0.000032      0.000005
      1.43000      4.29000      4.29000        -0.000001     -0.000002     -0.000018
      1.43000      7.15000      7.15000        -0.000032     -0.000016      0.000004
      1.43000      7.15000      4.29000        -0.000048      0.000075     -0.000154
      1.43000      4.29000      7.15000        -0.000032      0.000117      0.000063
      4.29000      1.43000      4.29000         0.000050     -0.000042      0.000048
      7.15000      1.43000      7.15000        -0.000012     -0.000012     -0.000106
      4.29000      1.43000      7.15000         0.000011     -0.000004     -0.000024
      7.15000      1.43000      4.29000        -0.000020     -0.000005      0.000054
      4.29000      4.29000      1.43000        -0.000011      0.000030     -0.000007
      7.15000      7.15000      1.43000        -0.000031      0.000014      0.000029
      7.15000      4.29000      1.43000         0.000040      0.000036      0.000004
      4.29000      7.15000      1.43000         0.000021     -0.000025     -0.000018
      2.86000      2.86000      2.86000        -0.000016      0.000023     -0.000019
      5.72000      5.72000      5.72000         0.000003     -0.000011      0.000000
      5.72000      5.72000      2.86000        -0.000012      0.000015     -0.000021
      2.86000      2.86000      5.72000        -0.000019     -0.000035     -0.000025
      5.72000      2.86000      5.72000         0.000002     -0.000002      0.000050
      2.86000      5.72000      2.86000        -0.000038     -0.000001     -0.000020
      2.86000      5.72000      5.72000         0.000007     -0.000020      0.000003
      5.72000      2.86000      2.86000        -0.000207     -0.000024     -0.000037
      4.29000      4.29000      4.29000         0.000048     -0.000022      0.000059
      7.15000      7.15000      7.15000        -0.000024      0.000053      0.000020
      7.15000      7.15000      4.29000         0.000004      0.000009      0.000017
      4.29000      4.29000      7.15000         0.000020     -0.000011     -0.000030
      7.15000      4.29000      7.15000        -0.000014     -0.000006      0.000011
      4.29000      7.15000      4.29000         0.000022     -0.000004     -0.000013
      4.29000      7.15000      7.15000         0.000057     -0.000023      0.000057
      7.15000      4.29000      4.29000        -0.000059      0.000004      0.000020
 -----------------------------------------------------------------------------------
    total drift:                               -0.000099      0.000134     -0.000008


--------------------------------------------------------------------------------------------------------



  FREE ENERGIE OF THE ION-ELECTRON SYSTEM (eV)
  ---------------------------------------------------
  free  energy   TOTEN  =      -444.65608270 eV

  energy  without entropy=     -444.58882266  energy(sigma->0) =     -444.63366268
 


--------------------------------------------------------------------------------------------------------


    POTLOK:  cpu time    0.1308: real time    0.1327


--------------------------------------------------------------------------------------------------------


     LOOP+:  cpu time12059.6307: real time12145.2759
    4ORBIT:  cpu time    0.0000: real time    0.0000
 


 total charge     
 
# of ion       s       p       d       tot
------------------------------------------
    1        0.476   0.515   6.214   7.205
    2        0.476   0.515   6.214   7.205
    3        0.476   0.515   6.214   7.205
    4        0.476   0.515   6.214   7.205
    5        0.476   0.515   6.214   7.205
    6        0.476   0.515   6.214   7.205
    7        0.476   0.515   6.214   7.205
    8        0.476   0.515   6.214   7.205
    9        0.476   0.515   6.214   7.205
   10        0.476   0.515   6.214   7.205
   11        0.476   0.515   6.214   7.205
   12        0.476   0.515   6.214   7.205
   13        0.476   0.515   6.214   7.205
   14        0.476   0.515   6.214   7.205
   15        0.476   0.515   6.214   7.205
   16        0.476   0.515   6.214   7.205
   17        0.476   0.515   6.214   7.205
   18        0.476   0.515   6.214   7.205
   19        0.476   0.515   6.214   7.205
   20        0.476   0.515   6.214   7.205
   21        0.476   0.515   6.214   7.205
   22        0.476   0.515   6.214   7.205
   23        0.476   0.515   6.214   7.205
   24        0.476   0.515   6.214   7.205
   25        0.476   0.515   6.214   7.205
   26        0.476   0.515   6.214   7.205
   27        0.476   0.515   6.214   7.205
   28        0.476   0.515   6.214   7.205
   29        0.476   0.515   6.214   7.205
   30        0.476   0.515   6.214   7.205
   31        0.476   0.515   6.214   7.205
   32        0.476   0.515   6.214   7.205
   33        0.476   0.515   6.214   7.205
   34        0.476   0.515   6.214   7.205
   35        0.476   0.515   6.214   7.205
   36        0.476   0.515   6.214   7.205
   37        0.476   0.515   6.214   7.205
   38        0.476   0.515   6.214   7.205
   39        0.476   0.515   6.214   7.205
   40        0.476   0.515   6.214   7.205
   41        0.476   0.515   6.214   7.205
   42        0.476   0.515   6.214   7.205
   43        0.476   0.515   6.214   7.205
   44        0.476   0.515   6.214   7.205
   45        0.476   0.515   6.214   7.205
   46        0.476   0.515   6.214   7.205
   47        0.476   0.515   6.214   7.205
   48        0.476   0.515   6.214   7.205
   49        0.476   0.515   6.214   7.205
   50        0.476   0.515   6.214   7.205
   51        0.476   0.515   6.214   7.205
   52        0.476   0.515   6.214   7.205
   53        0.476   0.515   6.214   7.205
   54        0.476   0.515   6.214   7.205
--------------------------------------------------
tot         25.723  27.789 335.560 389.071
 


 magnetization (x)
 
# of ion       s       p       d       tot
------------------------------------------
    1       -0.000  -0.000  -0.000  -0.000
    2       -0.000  -0.000  -0.000  -0.000
    3       -0.000  -0.000  -0.000  -0.000
    4        0.000   0.000   0.000   0.000
    5       -0.000  -0.000  -0.000  -0.000
    6        0.000   0.000   0.000   0.000
    7        0.000   0.000   0.000   0.000
    8       -0.000  -0.000  -0.000  -0.000
    9        0.000   0.000   0.000   0.000
   10        0.000   0.000   0.000   0.000
   11       -0.000  -0.000  -0.000  -0.000
   12        0.000   0.000   0.000   0.000
   13       -0.000  -0.000  -0.000  -0.000
   14       -0.000  -0.000  -0.000  -0.000
   15       -0.000  -0.000  -0.000  -0.000
   16        0.000   0.000   0.000   0.000
   17        0.000   0.000   0.000   0.000
   18        0.000   0.000   0.000   0.000
   19        0.000  -0.000  -0.000  -0.000
   20       -0.000  -0.000  -0.000  -0.000
   21       -0.000  -0.000  -0.000  -0.000
   22        0.000   0.000   0.000   0.000
   23        0.000   0.000  -0.000   0.000
   24       -0.000  -0.000  -0.000  -0.000
   25       -0.000  -0.000  -0.000  -0.000
   26        0.000   0.000   0.000   0.000
   27       -0.000  -0.000   0.000   0.000
   28        0.000   0.000   0.000   0.000
   29        0.000  -0.000   0.000   0.000
   30       -0.000   0.000  -0.000  -0.000
   31        0.000   0.000  -0.000   0.000
   32        0.000   0.000  -0.000   0.000
   33        0.000   0.000   0.000   0.000
   34        0.000   0.000  -0.000   0.000
   35       -0.000  -0.000  -0.000  -0.000
   36        0.000   0.000   0.000   0.000
   37        0.000   0.000   0.000   0.000
   38       -0.000  -0.000   0.000  -0.000
   39       -0.000  -0.000   0.000  -0.000
   40       -0.000  -0.000  -0.000  -0.000
   41       -0.000  -0.000  -0.000  -0.000
   42        0.000   0.000   0.000   0.000
   43        0.000   0.000   0.000   0.000
   44       -0.000  -0.000  -0.000  -0.000
   45       -0.000  -0.000   0.000  -0.000
   46       -0.000  -0.000  -0.000  -0.000
   47        0.000   0.000   0.000   0.000
   48       -0.000  -0.000  -0.000  -0.000
   49        0.000   0.000   0.000   0.000
   50        0.000   0.000   0.000   0.000
   51        0.000   0.000  -0.000   0.000
   52       -0.000  -0.000  -0.000  -0.000
   53        0.000  -0.000   0.000   0.000
   54       -0.000  -0.000  -0.000  -0.000
--------------------------------------------------
tot          0.000   0.000  -0.000   0.000
 


 magnetization (y)
 
# of ion       s       p       d       tot
------------------------------------------
    1       -0.000  -0.000   0.000  -0.000
    2       -0.000   0.000   0.000   0.000
    3       -0.000  -0.000  -0.000  -0.000
    4        0.000   0.000   0.000   0.000
    5        0.000   0.000   0.000   0.000
    6        0.000   0.000   0.000   0.000
    7        0.000   0.000   0.000   0.000
    8       -0.000  -0.000  -0.000  -0.000
    9        0.000   0.000  -0.000   0.000
   10        0.000   0.000   0.000   0.000
   11        0.000   0.000   0.000   0.000
   12       -0.000  -0.000  -0.000  -0.000
   13       -0.000  -0.000   0.000  -0.000
   14        0.000   0.000   0.000   0.000
   15       -0.000  -0.000  -0.000  -0.000
   16       -0.000   0.000  -0.000  -0.000
   17       -0.000  -0.000   0.000  -0.000
   18        0.000   0.000   0.000   0.000
   19        0.000   0.000  -0.000  -0.000
   20       -0.000  -0.000  -0.000  -0.000
   21       -0.000  -0.000  -0.000  -0.000
   22       -0.000   0.000  -0.000  -0.000
   23       -0.000   0.000   0.000   0.000
   24        0.000   0.000   0.000   0.000
   25       -0.000  -0.000   0.000  -0.000
   26       -0.000  -0.000   0.000  -0.000
   27        0.000  -0.000   0.000   0.000
   28       -0.000  -0.000  -0.000  -0.000
   29       -0.000  -0.000  -0.000  -0.000
   30       -0.000   0.000  -0.000  -0.000
   31       -0.000  -0.000  -0.000  -0.000
   32        0.000   0.000   0.000   0.000
   33       -0.000  -0.000  -0.000  -0.000
   34        0.000   0.000   0.000   0.000
   35       -0.000  -0.000  -0.000  -0.000
   36        0.000   0.000  -0.000   0.000
   37       -0.000  -0.000   0.000  -0.000
   38        0.000   0.000   0.000   0.000
   39        0.000   0.000  -0.000   0.000
   40        0.000   0.000   0.000   0.000
   41        0.000   0.000   0.000   0.000
   42       -0.000  -0.000  -0.000  -0.000
   43        0.000  -0.000   0.000   0.000
   44       -0.000  -0.000  -0.000  -0.000
   45        0.000   0.000   0.000   0.000
   46        0.000   0.000  -0.000   0.000
   47       -0.000  -0.000   0.000   0.000
   48        0.000   0.000   0.000   0.000
   49        0.000   0.000  -0.000   0.000
   50       -0.000  -0.000  -0.000  -0.000
   51        0.000   0.000  -0.000   0.000
   52       -0.000  -0.000  -0.000  -0.000
   53        0.000   0.000   0.000   0.000
   54       -0.000  -0.000   0.000  -0.000
--------------------------------------------------
tot          0.000   0.000   0.000   0.001
 


 magnetization (z)
 
# of ion       s       p       d       tot
------------------------------------------
    1       -0.013  -0.052   2.291   2.226
    2       -0.013  -0.052   2.291   2.226
    3       -0.013  -0.052   2.291   2.226
    4       -0.013  -0.052   2.291   2.226
    5       -0.013  -0.052   2.291   2.226
    6       -0.013  -0.052   2.291   2.226
    7       -0.013  -0.052   2.291   2.226
    8       -0.013  -0.052   2.291   2.226
    9       -0.013  -0.052   2.291   2.226
   10       -0.013  -0.052   2.291   2.226
   11       -0.013  -0.052   2.291   2.226
   12       -0.013  -0.052   2.291   2.226
   13       -0.013  -0.052   2.291   2.226
   14       -0.013  -0.052   2.291   2.226
   15       -0.013  -0.052   2.291   2.226
   16       -0.013  -0.052   2.291   2.226
   17       -0.013  -0.052   2.291   2.226
   18       -0.013  -0.052   2.291   2.226
   19       -0.013  -0.052   2.291   2.226
   20       -0.013  -0.052   2.291   2.226
   21       -0.013  -0.052   2.291   2.226
   22       -0.013  -0.052   2.291   2.226
   23       -0.013  -0.052   2.291   2.226
   24       -0.013  -0.052   2.291   2.226
   25       -0.013  -0.052   2.291   2.226
   26       -0.013  -0.052   2.291   2.226
   27       -0.013  -0.052   2.291   2.226
   28       -0.013  -0.052   2.291   2.226
   29       -0.013  -0.052   2.291   2.226
   30       -0.013  -0.052   2.291   2.226
   31       -0.013  -0.052   2.291   2.226
   32       -0.013  -0.052   2.291   2.226
   33       -0.013  -0.052   2.291   2.226
   34       -0.013  -0.052   2.291   2.226
   35       -0.013  -0.052   2.291   2.226
   36       -0.013  -0.052   2.291   2.226
   37       -0.013  -0.052   2.291   2.226
   38       -0.013  -0.052   2.291   2.226
   39       -0.013  -0.052   2.291   2.226
   40       -0.013  -0.052   2.291   2.226
   41       -0.013  -0.052   2.291   2.226
   42       -0.013  -0.052   2.291   2.226
   43       -0.013  -0.052   2.291   2.226
   44       -0.013  -0.052   2.291   2.226
   45       -0.013  -0.052   2.291   2.226
   46       -0.013  -0.052   2.290   2.226
   47       -0.013  -0.052   2.291   2.226
   48       -0.013  -0.052   2.291   2.226
   49       -0.013  -0.052   2.291   2.226
   50       -0.013  -0.052   2.291   2.226
   51       -0.013  -0.052   2.291   2.226
   52       -0.013  -0.052   2.291   2.226
   53       -0.013  -0.052   2.291   2.226
   54       -0.013  -0.052   2.291   2.226
--------------------------------------------------
tot         -0.691  -2.800 123.692 120.201
 

 total amount of memory used by VASP MPI-rank0    93145. kBytes
=======================================================================

   base      :      30000. kBytes
   nonl-proj :      11309. kBytes
   fftplans  :       2196. kBytes
   grid      :       7838. kBytes
   one-center:        870. kBytes
   wavefun   :      40932. kBytes
 
  
  
 General timing and accounting informations for this job:
 ========================================================
  
                  Total CPU time used (sec):    12120.753
                            User time (sec):    12104.907
                          System time (sec):       15.847
                         Elapsed time (sec):    12208.960
  
                   Maximum memory used (kb):      496400.
                   Average memory used (kb):           0.
  
                          Minor page faults:      1688974
                          Major page faults:            0
                 Voluntary context switches:         7807
